********************************************************************************
*                       GENERAL UTILITY LATTICE PROGRAM                        *
*                                 Julian Gale                                  *
*                      Nanochemistry Research Institute                        *
*                           Department of Chemistry                            *
*                    Curtin University, Western Australia                      *
********************************************************************************
* Version = 4.3.5 * Last modified = 16th December 2015                         *
********************************************************************************
*  optimise     - perform optimisation run                                     *
*  conp         - constant pressure calculation                                *
********************************************************************************
* ASE calculation                                                              *
********************************************************************************


  Job Started  at 14:36.55 14th June       2021                               

  Number of CPUs =     1


  Total number of configurations input =   1

********************************************************************************
*  Input for Configuration =   1                                               *
********************************************************************************

  Formula = O14Sr6Ti4                                                   

  Number of irreducible atoms/shells =      24


  Total number atoms/shells =      24

  Dimensionality = 3               :  Bulk   



  Cartesian lattice vectors (Angstroms) :

        3.899000    0.000000    0.000000
        0.000000    3.899000    0.000000
        0.000000    0.000000   20.399990

  Cell parameters (Angstroms/Degrees):

  a =       3.8990    alpha =  90.0000
  b =       3.8990    beta  =  90.0000
  c =      20.4000    gamma =  90.0000

  Initial cell volume =         310.124748 Angs**3

  Temperature of configuration =  0.000     K 

  Pressure of configuration =         0.000 GPa 

  Fractional coordinates of asymmetric unit :

--------------------------------------------------------------------------------
   No.  Atomic       x           y          z         Charge      Occupancy
        Label      (Frac)      (Frac)     (Frac)        (e)         (Frac)  
--------------------------------------------------------------------------------
      1 O     c    0.500000    0.500000    0.500000    -2.00000    1.000000    
      2 O     c    0.500000 *  0.000000 *  0.405000 *  -2.00000    1.000000    
      3 O     c    0.500000 *  0.000000 *  0.595000 *  -2.00000    1.000000    
      4 O     c    0.500000 *  0.000000 *  0.905000 *  -2.00000    1.000000    
      5 O     c    0.500000 *  0.000000 *  0.095000 *  -2.00000    1.000000    
      6 O     c    0.000000 *  0.500000 *  0.905000 *  -2.00000    1.000000    
      7 O     c    0.000000 *  0.500000 *  0.095000 *  -2.00000    1.000000    
      8 O     c    0.500000 *  0.500000 *  0.310000 *  -2.00000    1.000000    
      9 O     c    0.500000 *  0.500000 *  0.690000 *  -2.00000    1.000000    
     10 O     c    0.000000 *  0.000000 *  0.810000 *  -2.00000    1.000000    
     11 O     c    0.000000 *  0.000000 *  0.190000 *  -2.00000    1.000000    
     12 O     c    0.000000 *  0.500000 *  0.405000 *  -2.00000    1.000000    
     13 O     c    0.000000 *  0.000000 *  0.000000 *  -2.00000    1.000000    
     14 O     c    0.000000 *  0.500000 *  0.595000 *  -2.00000    1.000000    
     15 Sr    c    0.500000 *  0.500000 *  0.185000 *   2.00000    1.000000    
     16 Sr    c    0.500000 *  0.500000 *  0.815000 *   2.00000    1.000000    
     17 Sr    c    0.000000 *  0.000000 *  0.685000 *   2.00000    1.000000    
     18 Sr    c    0.000000 *  0.000000 *  0.315000 *   2.00000    1.000000    
     19 Sr    c    0.500000 *  0.500000 *  0.000000 *   2.00000    1.000000    
     20 Sr    c    0.000000 *  0.000000 *  0.500000 *   2.00000    1.000000    
     21 Ti    c    0.500000 *  0.500000 *  0.405000 *   4.00000    1.000000    
     22 Ti    c    0.500000 *  0.500000 *  0.595000 *   4.00000    1.000000    
     23 Ti    c    0.000000 *  0.000000 *  0.905000 *   4.00000    1.000000    
     24 Ti    c    0.000000 *  0.000000 *  0.095000 *   4.00000    1.000000    
--------------------------------------------------------------------------------



********************************************************************************
*  General input information                                                   *
********************************************************************************

  Species output for all configurations : 

--------------------------------------------------------------------------------
  Species    Type    Atomic    Atomic    Charge       Radii (Angs)     Library
                     Number     Mass       (e)     Cova   Ionic  VDW   Symbol
--------------------------------------------------------------------------------
    O        Core        8      16.00  -2.000000   0.730  0.000  1.360          
    Sr       Core       38      87.62   2.000000   1.120  0.000  1.670          
    Ti       Core       22      47.88   4.000000   1.470  0.000  2.190          
--------------------------------------------------------------------------------


  Lattice summation method               =    Ewald          (3-D)
                                         =    Parry          (2-D)
                                         =    Saunders et al (1-D)
  Accuracy factor for lattice sums       =   12.000


  Time limit =     300.00 seconds

  Maximum range for interatomic potentials =    100000.000000 Angstroms

  C6 terms to be calculated in real and reciprocal space 

  General interatomic potentials :

--------------------------------------------------------------------------------
Atom  Types   Potential         A         B         C         D     Cutoffs(Ang)
  1     2                                                            Min    Max 
--------------------------------------------------------------------------------
O    c Sr   c Buckingham    0.195E+04 0.337      19.2      0.00     1.200 12.000
O    c Ti   c Buckingham    0.459E+04 0.261      0.00      0.00     1.200 12.000
O    c O    c Buckingham    0.139E+04 0.363      175.      0.00     1.200 12.000
--------------------------------------------------------------------------------

********************************************************************************
*  Output for configuration   1                                                *
********************************************************************************


  Components of energy : 

--------------------------------------------------------------------------------
  Interatomic potentials     =         136.54199900 eV
  Monopole - monopole (real) =        -410.71831457 eV
  Monopole - monopole (recip)=        -399.10233523 eV
  Monopole - monopole (total)=        -809.82064980 eV
  Dispersion (real+recip)    =         -27.92273534 eV
--------------------------------------------------------------------------------
  Total lattice energy       =        -701.20138614 eV
--------------------------------------------------------------------------------
  Total lattice energy       =          -67655.2149 kJ/(mole unit cells)
--------------------------------------------------------------------------------


  Number of variables =       75

  Maximum number of calculations  =          1500
  Maximum Hessian update interval =            10
  Maximum step size               =   1.000000000
  Maximum parameter tolerance     =   0.000010000
  Maximum function  tolerance     =   0.000010000
  Maximum gradient  tolerance     =   0.001000000
  Maximum gradient  component     =   0.010000000

  Symmetry not applied to optimisation

  Cell parameters to be optimised using strains

  Newton-Raphson optimiser to be used

  BFGS hessian update to be used

  Start of bulk optimisation :

  Cycle:      0 Energy:      -701.201386  Gnorm:      1.808217  CPU:    0.047
  ** Hessian calculated **
  Cycle:      1 Energy:      -702.318127  Gnorm:      0.078789  CPU:    0.078
  Cycle:      2 Energy:      -702.319717  Gnorm:      0.009576  CPU:    0.125
  Cycle:      3 Energy:      -702.319744  Gnorm:      0.001429  CPU:    0.156


  **** Optimisation achieved ****


  Final energy =    -702.31974512 eV
  Final Gnorm  =       0.00017119

  Components of energy : 

--------------------------------------------------------------------------------
  Interatomic potentials     =         122.12947391 eV
  Monopole - monopole (real) =        -405.18729797 eV
  Monopole - monopole (recip)=        -393.57378305 eV
  Monopole - monopole (total)=        -798.76108103 eV
  Dispersion (real+recip)    =         -25.68813801 eV
--------------------------------------------------------------------------------
  Total lattice energy       =        -702.31974512 eV
--------------------------------------------------------------------------------
  Total lattice energy       =          -67763.1195 kJ/(mole unit cells)
--------------------------------------------------------------------------------

  Final fractional coordinates of atoms :

--------------------------------------------------------------------------------
   No.  Atomic        x           y          z          Radius
        Label       (Frac)      (Frac)     (Frac)       (Angs) 
--------------------------------------------------------------------------------
     1  O     c     0.500000    0.500000    0.500000    0.000000
     2  O     c     0.500000    0.000000    0.404596    0.000000
     3  O     c     0.500000    0.000000    0.595404    0.000000
     4  O     c     0.500000    0.000000    0.904596    0.000000
     5  O     c     0.500000    0.000000    0.095404    0.000000
     6  O     c     0.000000    0.500000    0.904596    0.000000
     7  O     c     0.000000    0.500000    0.095404    0.000000
     8  O     c     0.500000    0.500000    0.310570    0.000000
     9  O     c     0.500000    0.500000    0.689430    0.000000
    10  O     c     0.000000    1.000000    0.810570    0.000000
    11  O     c     0.000000    0.000000    0.189430    0.000000
    12  O     c     0.000000    0.500000    0.404596    0.000000
    13  O     c     0.000000    0.000000    1.000000    0.000000
    14  O     c     1.000000    0.500000    0.595404    0.000000
    15  Sr    c     0.500000    0.500000    0.190617    0.000000
    16  Sr    c     0.500000    0.500000    0.809383    0.000000
    17  Sr    c     0.000000    1.000000    0.690617    0.000000
    18  Sr    c     0.000000    0.000000    0.309383    0.000000
    19  Sr    c     0.500000    0.500000    1.000000    0.000000
    20  Sr    c     1.000000    0.000000    0.500000    0.000000
    21  Ti    c     0.500000    0.500000    0.404570    0.000000
    22  Ti    c     0.500000    0.500000    0.595430    0.000000
    23  Ti    c     0.000000    0.000000    0.904570    0.000000
    24  Ti    c     0.000000    0.000000    0.095430    0.000000
--------------------------------------------------------------------------------

  Final Cartesian lattice vectors (Angstroms) :

        3.942979    0.000000    0.000000
        0.000000    3.942979   -0.000000
        0.000000   -0.000000   20.815002


  Final cell parameters and derivatives :

--------------------------------------------------------------------------------
       a            3.942979 Angstrom     dE/de1(xx)    -0.000561 eV/strain
       b            3.942979 Angstrom     dE/de2(yy)    -0.000561 eV/strain
       c           20.815002 Angstrom     dE/de3(zz)     0.002232 eV/strain
       alpha       90.000000 Degrees      dE/de4(yz)    -0.000000 eV/strain
       beta        90.000000 Degrees      dE/de5(xz)    -0.000000 eV/strain
       gamma       90.000000 Degrees      dE/de6(xy)     0.000000 eV/strain
--------------------------------------------------------------------------------

  Primitive cell volume =           323.612554 Angs**3

  Density of cell =      4.829821 g/cm**3

  Non-primitive cell volume =           323.612554 Angs**3


  Final internal derivatives :

--------------------------------------------------------------------------------
   No.  Atomic          a             b             c           Radius
        Label          (eV)          (eV)          (eV)        (eV/Angs)
--------------------------------------------------------------------------------
      1 O     c       0.000000      0.000000      0.000000      0.000000
      2 O     c      -0.000000      0.000000     -0.004080      0.000000
      3 O     c       0.000000      0.000000      0.004080      0.000000
      4 O     c      -0.000000      0.000000     -0.004080      0.000000
      5 O     c      -0.000000      0.000000      0.004080      0.000000
      6 O     c       0.000000     -0.000000     -0.004080      0.000000
      7 O     c       0.000000     -0.000000      0.004080      0.000000
      8 O     c      -0.000000      0.000000     -0.000751      0.000000
      9 O     c      -0.000000      0.000000      0.000751      0.000000
     10 O     c      -0.000000      0.000000     -0.000751      0.000000
     11 O     c       0.000000      0.000000      0.000751      0.000000
     12 O     c      -0.000000     -0.000000     -0.004080      0.000000
     13 O     c       0.000000      0.000000      0.000000      0.000000
     14 O     c      -0.000000      0.000000      0.004080      0.000000
     15 Sr    c      -0.000000     -0.000000      0.001086      0.000000
     16 Sr    c       0.000000      0.000000     -0.001086      0.000000
     17 Sr    c       0.000000      0.000000      0.001086      0.000000
     18 Sr    c       0.000000     -0.000000     -0.001086      0.000000
     19 Sr    c      -0.000000     -0.000000     -0.000000      0.000000
     20 Sr    c      -0.000000      0.000000      0.000000      0.000000
     21 Ti    c       0.000000      0.000000      0.002185      0.000000
     22 Ti    c       0.000000     -0.000000     -0.002185      0.000000
     23 Ti    c       0.000000      0.000000      0.002185      0.000000
     24 Ti    c       0.000000     -0.000000     -0.002185      0.000000
--------------------------------------------------------------------------------
  Maximum abs         0.000000      0.000000      0.004080      0.000000
--------------------------------------------------------------------------------


  Time to end of optimisation =       0.1875 seconds


  Peak dynamic memory used =       0.65 MB 


  Timing analysis for GULP :

--------------------------------------------------------------------------------
  Task / Subroutine                                          Time (Seconds)
--------------------------------------------------------------------------------
  Calculation of reciprocal space energy and derivatives          0.0469
  Calculation of real space energy and derivatives                0.1250
--------------------------------------------------------------------------------
  Total CPU time                                                  0.1875
--------------------------------------------------------------------------------


  Dump file written as temp.res                                                


  Job Finished at 14:36.55 14th June       2021                               

