********************************************************************************
*                       GENERAL UTILITY LATTICE PROGRAM                        *
*                                 Julian Gale                                  *
*                      Nanochemistry Research Institute                        *
*                           Department of Chemistry                            *
*                    Curtin University, Western Australia                      *
********************************************************************************
* Version = 4.3.5 * Last modified = 16th December 2015                         *
********************************************************************************
*  optimise     - perform optimisation run                                     *
*  conp         - constant pressure calculation                                *
********************************************************************************
* ASE calculation                                                              *
********************************************************************************


  Job Started  at 14:36.56 14th June       2021                               

  Number of CPUs =     1


  Total number of configurations input =   1

********************************************************************************
*  Input for Configuration =   1                                               *
********************************************************************************

  Formula = O20Sr8Ti6                                                   

  Number of irreducible atoms/shells =      34


  Total number atoms/shells =      34

  Dimensionality = 3               :  Bulk   



  Cartesian lattice vectors (Angstroms) :

        3.900000    0.000000    0.000000
        0.000000    3.900000    0.000000
        0.000000    0.000000   28.100000

  Cell parameters (Angstroms/Degrees):

  a =       3.9000    alpha =  90.0000
  b =       3.9000    beta  =  90.0000
  c =      28.1000    gamma =  90.0000

  Initial cell volume =         427.401000 Angs**3

  Temperature of configuration =  0.000     K 

  Pressure of configuration =         0.000 GPa 

  Fractional coordinates of asymmetric unit :

--------------------------------------------------------------------------------
   No.  Atomic       x           y          z         Charge      Occupancy
        Label      (Frac)      (Frac)     (Frac)        (e)         (Frac)  
--------------------------------------------------------------------------------
      1 O     c    0.500000    0.000000    0.136000    -2.00000    1.000000    
      2 O     c    0.000000 *  0.000000 *  0.796000 *  -2.00000    1.000000    
      3 O     c    0.000000 *  0.000000 *  0.204000 *  -2.00000    1.000000    
      4 O     c    0.000000 *  0.500000 *  0.364000 *  -2.00000    1.000000    
      5 O     c    0.000000 *  0.500000 *  0.636000 *  -2.00000    1.000000    
      6 O     c    0.500000 *  0.000000 *  0.364000 *  -2.00000    1.000000    
      7 O     c    0.500000 *  0.000000 *  0.636000 *  -2.00000    1.000000    
      8 O     c    0.500000 *  0.000000 *  0.864000 *  -2.00000    1.000000    
      9 O     c    0.000000 *  0.500000 *  0.864000 *  -2.00000    1.000000    
     10 O     c    0.000000 *  0.500000 *  0.136000 *  -2.00000    1.000000    
     11 O     c    0.500000 *  0.500000 *  0.432000 *  -2.00000    1.000000    
     12 O     c    0.500000 *  0.500000 *  0.704000 *  -2.00000    1.000000    
     13 O     c    0.500000 *  0.500000 *  0.568000 *  -2.00000    1.000000    
     14 O     c    0.000000 *  0.000000 *  0.068000 *  -2.00000    1.000000    
     15 O     c    0.000000 *  0.500000 *  0.500000 *  -2.00000    1.000000    
     16 O     c    0.500000 *  0.000000 *  0.500000 *  -2.00000    1.000000    
     17 O     c    0.500000 *  0.000000 *  0.000000 *  -2.00000    1.000000    
     18 O     c    0.000000 *  0.500000 *  0.000000 *  -2.00000    1.000000    
     19 O     c    0.000000 *  0.000000 *  0.932000 *  -2.00000    1.000000    
     20 O     c    0.500000 *  0.500000 *  0.296000 *  -2.00000    1.000000    
     21 Sr    c    0.000000 *  0.000000 *  0.431000 *   2.00000    1.000000    
     22 Sr    c    0.000000 *  0.000000 *  0.569000 *   2.00000    1.000000    
     23 Sr    c    0.500000 *  0.500000 *  0.931000 *   2.00000    1.000000    
     24 Sr    c    0.500000 *  0.500000 *  0.069000 *   2.00000    1.000000    
     25 Sr    c    0.000000 *  0.000000 *  0.295000 *   2.00000    1.000000    
     26 Sr    c    0.000000 *  0.000000 *  0.705000 *   2.00000    1.000000    
     27 Sr    c    0.500000 *  0.500000 *  0.205000 *   2.00000    1.000000    
     28 Sr    c    0.500000 *  0.500000 *  0.795000 *   2.00000    1.000000    
     29 Ti    c    0.500000 *  0.500000 *  0.366000 *   4.00000    1.000000    
     30 Ti    c    0.500000 *  0.500000 *  0.634000 *   4.00000    1.000000    
     31 Ti    c    0.000000 *  0.000000 *  0.866000 *   4.00000    1.000000    
     32 Ti    c    0.000000 *  0.000000 *  0.134000 *   4.00000    1.000000    
     33 Ti    c    0.500000 *  0.500000 *  0.500000 *   4.00000    1.000000    
     34 Ti    c    0.000000 *  0.000000 *  0.000000 *   4.00000    1.000000    
--------------------------------------------------------------------------------



********************************************************************************
*  General input information                                                   *
********************************************************************************

  Species output for all configurations : 

--------------------------------------------------------------------------------
  Species    Type    Atomic    Atomic    Charge       Radii (Angs)     Library
                     Number     Mass       (e)     Cova   Ionic  VDW   Symbol
--------------------------------------------------------------------------------
    O        Core        8      16.00  -2.000000   0.730  0.000  1.360          
    Sr       Core       38      87.62   2.000000   1.120  0.000  1.670          
    Ti       Core       22      47.88   4.000000   1.470  0.000  2.190          
--------------------------------------------------------------------------------


  Lattice summation method               =    Ewald          (3-D)
                                         =    Parry          (2-D)
                                         =    Saunders et al (1-D)
  Accuracy factor for lattice sums       =   12.000


  Time limit =     300.00 seconds

  Maximum range for interatomic potentials =    100000.000000 Angstroms

  C6 terms to be calculated in real and reciprocal space 

  General interatomic potentials :

--------------------------------------------------------------------------------
Atom  Types   Potential         A         B         C         D     Cutoffs(Ang)
  1     2                                                            Min    Max 
--------------------------------------------------------------------------------
O    c Sr   c Buckingham    0.195E+04 0.337      19.2      0.00     1.200 12.000
O    c Ti   c Buckingham    0.459E+04 0.261      0.00      0.00     1.200 12.000
O    c O    c Buckingham    0.139E+04 0.363      175.      0.00     1.200 12.000
--------------------------------------------------------------------------------

********************************************************************************
*  Output for configuration   1                                                *
********************************************************************************


  Components of energy : 

--------------------------------------------------------------------------------
  Interatomic potentials     =         203.89941865 eV
  Monopole - monopole (real) =        -646.05584759 eV
  Monopole - monopole (recip)=        -533.34425202 eV
  Monopole - monopole (total)=       -1179.40009961 eV
  Dispersion (real+recip)    =         -41.94626199 eV
--------------------------------------------------------------------------------
  Total lattice energy       =       -1017.44694295 eV
--------------------------------------------------------------------------------
  Total lattice energy       =          -98168.0769 kJ/(mole unit cells)
--------------------------------------------------------------------------------


  Number of variables =      105

  Maximum number of calculations  =          1500
  Maximum Hessian update interval =            10
  Maximum step size               =   1.000000000
  Maximum parameter tolerance     =   0.000010000
  Maximum function  tolerance     =   0.000010000
  Maximum gradient  tolerance     =   0.001000000
  Maximum gradient  component     =   0.010000000

  Symmetry not applied to optimisation

  Cell parameters to be optimised using strains

  Newton-Raphson optimiser to be used

  BFGS hessian update to be used

  Start of bulk optimisation :

  Cycle:      0 Energy:     -1017.446943  Gnorm:      3.454581  CPU:    0.078
  ** Hessian calculated **
  Cycle:      1 Energy:     -1019.462173  Gnorm:      0.273973  CPU:    0.156
  Cycle:      2 Energy:     -1019.482144  Gnorm:      0.069096  CPU:    0.219
  Cycle:      3 Energy:     -1019.483014  Gnorm:      0.014775  CPU:    0.297
  Cycle:      4 Energy:     -1019.483043  Gnorm:      0.002318  CPU:    0.359


  **** Optimisation achieved ****


  Final energy =   -1019.48304411 eV
  Final Gnorm  =       0.00013069

  Components of energy : 

--------------------------------------------------------------------------------
  Interatomic potentials     =         177.50278969 eV
  Monopole - monopole (real) =        -633.91453827 eV
  Monopole - monopole (recip)=        -525.35450682 eV
  Monopole - monopole (total)=       -1159.26904509 eV
  Dispersion (real+recip)    =         -37.71678870 eV
--------------------------------------------------------------------------------
  Total lattice energy       =       -1019.48304411 eV
--------------------------------------------------------------------------------
  Total lattice energy       =          -98364.5295 kJ/(mole unit cells)
--------------------------------------------------------------------------------

  Final fractional coordinates of atoms :

--------------------------------------------------------------------------------
   No.  Atomic        x           y          z          Radius
        Label       (Frac)      (Frac)     (Frac)       (Angs) 
--------------------------------------------------------------------------------
     1  O     c     0.500000    0.000000    0.136000    0.000000
     2  O     c     0.000000    1.000000    0.791799    0.000000
     3  O     c     0.000000    1.000000    0.204071    0.000000
     4  O     c     0.000000    0.500000    0.359870    0.000000
     5  O     c     0.000000    0.500000    0.636000    0.000000
     6  O     c     0.500000    1.000000    0.359870    0.000000
     7  O     c     0.500000    1.000000    0.636000    0.000000
     8  O     c     0.500000    1.000000    0.859870    0.000000
     9  O     c     0.000000    0.500000    0.859870    0.000000
    10  O     c     1.000000    0.500000    0.136000    0.000000
    11  O     c     0.500000    0.500000    0.428934    0.000000
    12  O     c     0.500000    0.500000    0.704071    0.000000
    13  O     c     0.500000    0.500000    0.566936    0.000000
    14  O     c     0.000000    1.000000    0.066936    0.000000
    15  O     c     0.000000    0.500000    0.497935    0.000000
    16  O     c     0.500000    1.000000    0.497935    0.000000
    17  O     c     0.500000    1.000000    0.997935    0.000000
    18  O     c     0.000000    0.500000    0.997935    0.000000
    19  O     c     0.000000    1.000000    0.928934    0.000000
    20  O     c     0.500000    0.500000    0.291799    0.000000
    21  Sr    c     0.000000    1.000000    0.428958    0.000000
    22  Sr    c     0.000000    1.000000    0.566912    0.000000
    23  Sr    c     0.500000    0.500000    0.928958    0.000000
    24  Sr    c     0.500000    0.500000    0.066912    0.000000
    25  Sr    c     0.000000    1.000000    0.290959    0.000000
    26  Sr    c     0.000000    1.000000    0.704911    0.000000
    27  Sr    c     0.500000    0.500000    0.204911    0.000000
    28  Sr    c     0.500000    0.500000    0.790959    0.000000
    29  Ti    c     0.500000    0.500000    0.359845    0.000000
    30  Ti    c     0.500000    0.500000    0.636025    0.000000
    31  Ti    c     0.000000    1.000000    0.859845    0.000000
    32  Ti    c     0.000000    1.000000    0.136025    0.000000
    33  Ti    c     0.500000    0.500000    0.497935    0.000000
    34  Ti    c     0.000000    1.000000    0.997935    0.000000
--------------------------------------------------------------------------------

  Final Cartesian lattice vectors (Angstroms) :

        3.946975    0.000000    0.000000
        0.000000    3.946975    0.000000
        0.000000    0.000000   28.721926


  Final cell parameters and derivatives :

--------------------------------------------------------------------------------
       a            3.946975 Angstrom     dE/de1(xx)    -0.000267 eV/strain
       b            3.946975 Angstrom     dE/de2(yy)    -0.000267 eV/strain
       c           28.721926 Angstrom     dE/de3(zz)     0.001132 eV/strain
       alpha       90.000000 Degrees      dE/de4(yz)     0.000000 eV/strain
       beta        90.000000 Degrees      dE/de5(xz)    -0.000000 eV/strain
       gamma       90.000000 Degrees      dE/de6(xy)     0.000000 eV/strain
--------------------------------------------------------------------------------

  Primitive cell volume =           447.447648 Angs**3

  Density of cell =      4.855134 g/cm**3

  Non-primitive cell volume =           447.447648 Angs**3


  Final internal derivatives :

--------------------------------------------------------------------------------
   No.  Atomic          a             b             c           Radius
        Label          (eV)          (eV)          (eV)        (eV/Angs)
--------------------------------------------------------------------------------
      1 O     c       0.000000      0.000000      0.000000      0.000000
      2 O     c       0.000000      0.000000      0.003281      0.000000
      3 O     c      -0.000000     -0.000000     -0.003281      0.000000
      4 O     c       0.000000      0.000000     -0.001390      0.000000
      5 O     c       0.000000      0.000000      0.001390      0.000000
      6 O     c      -0.000000      0.000000     -0.001390      0.000000
      7 O     c      -0.000000     -0.000000      0.001390      0.000000
      8 O     c       0.000000     -0.000000     -0.001390      0.000000
      9 O     c      -0.000000     -0.000000     -0.001390      0.000000
     10 O     c      -0.000000     -0.000000      0.001390      0.000000
     11 O     c      -0.000000      0.000000      0.002730      0.000000
     12 O     c      -0.000000      0.000000     -0.003281      0.000000
     13 O     c       0.000000      0.000000     -0.002730      0.000000
     14 O     c       0.000000     -0.000000     -0.002730      0.000000
     15 O     c      -0.000000     -0.000000     -0.000000      0.000000
     16 O     c      -0.000000      0.000000     -0.000000      0.000000
     17 O     c       0.000000     -0.000000      0.000000      0.000000
     18 O     c      -0.000000     -0.000000     -0.000000      0.000000
     19 O     c      -0.000000     -0.000000      0.002730      0.000000
     20 O     c      -0.000000     -0.000000      0.003281      0.000000
     21 Sr    c      -0.000000     -0.000000     -0.004231      0.000000
     22 Sr    c      -0.000000     -0.000000      0.004231      0.000000
     23 Sr    c      -0.000000      0.000000     -0.004231      0.000000
     24 Sr    c      -0.000000      0.000000      0.004231      0.000000
     25 Sr    c       0.000000      0.000000     -0.002673      0.000000
     26 Sr    c       0.000000      0.000000      0.002673      0.000000
     27 Sr    c       0.000000      0.000000      0.002673      0.000000
     28 Sr    c      -0.000000     -0.000000     -0.002673      0.000000
     29 Ti    c       0.000000     -0.000000     -0.000279      0.000000
     30 Ti    c      -0.000000     -0.000000      0.000279      0.000000
     31 Ti    c       0.000000      0.000000     -0.000279      0.000000
     32 Ti    c       0.000000      0.000000      0.000279      0.000000
     33 Ti    c       0.000000      0.000000      0.000000      0.000000
     34 Ti    c      -0.000000      0.000000     -0.000000      0.000000
--------------------------------------------------------------------------------
  Maximum abs         0.000000      0.000000      0.004231      0.000000
--------------------------------------------------------------------------------


  Time to end of optimisation =       0.4375 seconds


  Peak dynamic memory used =       0.79 MB 


  Timing analysis for GULP :

--------------------------------------------------------------------------------
  Task / Subroutine                                          Time (Seconds)
--------------------------------------------------------------------------------
  Calculation of reciprocal space energy and derivatives          0.1875
  Calculation of real space energy and derivatives                0.2188
--------------------------------------------------------------------------------
  Total CPU time                                                  0.4375
--------------------------------------------------------------------------------


  Dump file written as temp.res                                                


  Job Finished at 14:36.56 14th June       2021                               

