********************************************************************************
*                       GENERAL UTILITY LATTICE PROGRAM                        *
*                                 Julian Gale                                  *
*                      Nanochemistry Research Institute                        *
*                           Department of Chemistry                            *
*                    Curtin University, Western Australia                      *
********************************************************************************
* Version = 4.3.5 * Last modified = 16th December 2015                         *
********************************************************************************
*  optimise     - perform optimisation run                                     *
*  conp         - constant pressure calculation                                *
********************************************************************************
* ASE calculation                                                              *
********************************************************************************


  Job Started  at 14:36.28 14th June       2021                               

  Number of CPUs =     1


  Total number of configurations input =   1

********************************************************************************
*  Input for Configuration =   1                                               *
********************************************************************************

  Formula = O16Sr4Y8                                                    

  Number of irreducible atoms/shells =      28


  Total number atoms/shells =      28

  Dimensionality = 3               :  Bulk   



  Cartesian lattice vectors (Angstroms) :

       10.550468    0.000000    0.000000
       -0.003998   12.522802    0.000000
        0.000000    0.000000    3.524064

  Cell parameters (Angstroms/Degrees):

  a =      10.5505    alpha =  90.0000
  b =      12.5228    beta  =  90.0000
  c =       3.5241    gamma =  90.0183

  Initial cell volume =         465.604360 Angs**3

  Temperature of configuration =  0.000     K 

  Pressure of configuration =         0.000 GPa 

  Fractional coordinates of asymmetric unit :

--------------------------------------------------------------------------------
   No.  Atomic       x           y          z         Charge      Occupancy
        Label      (Frac)      (Frac)     (Frac)        (e)         (Frac)  
--------------------------------------------------------------------------------
      1 O     c    0.790000    0.807000    0.750000    -2.00000    1.000000    
      2 O     c    0.576818 *  0.548978 *  0.750000 *  -2.00000    1.000000    
      3 O     c    0.420600 *  0.402194 *  0.250000 *  -2.00000    1.000000    
      4 O     c    0.016276 *  0.689763 *  0.250000 *  -2.00000    1.000000    
      5 O     c    0.982420 *  0.262277 *  0.750000 *  -2.00000    1.000000    
      6 O     c    0.482934 *  0.189100 *  0.750000 *  -2.00000    1.000000    
      7 O     c    0.514892 *  0.762061 *  0.250000 *  -2.00000    1.000000    
      8 O     c    0.619302 *  0.994438 *  0.250000 *  -2.00000    1.000000    
      9 O     c    0.378442 *  0.956585 *  0.750000 *  -2.00000    1.000000    
     10 O     c    0.878710 *  0.495008 *  0.750000 *  -2.00000    1.000000    
     11 O     c    0.119233 *  0.456726 *  0.250000 *  -2.00000    1.000000    
     12 O     c    0.707137 *  0.309226 *  0.250000 *  -2.00000    1.000000    
     13 O     c    0.290660 *  0.642325 *  0.750000 *  -2.00000    1.000000    
     14 O     c    0.920208 *  0.049030 *  0.250000 *  -2.00000    1.000000    
     15 O     c    0.207007 *  0.142271 *  0.250000 *  -2.00000    1.000000    
     16 O     c    0.076193 *  0.902557 *  0.750000 *  -2.00000    1.000000    
     17 Sr    c    0.253572 *  0.829199 *  0.250000 *   2.00000    1.000000    
     18 Sr    c    0.743272 *  0.122419 *  0.750000 *   2.00000    1.000000    
     19 Sr    c    0.243456 *  0.329570 *  0.750000 *   2.00000    1.000000    
     20 Sr    c    0.753803 *  0.622358 *  0.250000 *   2.00000    1.000000    
     21 Y     c    0.928640 *  0.859659 *  0.250000 *   3.00000    1.000000    
     22 Y     c    0.068170 *  0.091579 *  0.750000 *   3.00000    1.000000    
     23 Y     c    0.568449 *  0.359936 *  0.750000 *   3.00000    1.000000    
     24 Y     c    0.429122 *  0.591487 *  0.250000 *   3.00000    1.000000    
     25 Y     c    0.917340 *  0.368936 *  0.250000 *   3.00000    1.000000    
     26 Y     c    0.080431 *  0.582982 *  0.750000 *   3.00000    1.000000    
     27 Y     c    0.580048 *  0.868337 *  0.750000 *   3.00000    1.000000    
     28 Y     c    0.417277 *  0.082609 *  0.250000 *   3.00000    1.000000    
--------------------------------------------------------------------------------



********************************************************************************
*  General input information                                                   *
********************************************************************************

  Species output for all configurations : 

--------------------------------------------------------------------------------
  Species    Type    Atomic    Atomic    Charge       Radii (Angs)     Library
                     Number     Mass       (e)     Cova   Ionic  VDW   Symbol
--------------------------------------------------------------------------------
    O        Core        8      16.00  -2.000000   0.730  0.000  1.360          
    Sr       Core       38      87.62   2.000000   1.120  0.000  1.670          
    Y        Core       39      88.91   3.000000   1.780  0.000  2.660          
--------------------------------------------------------------------------------


  Lattice summation method               =    Ewald          (3-D)
                                         =    Parry          (2-D)
                                         =    Saunders et al (1-D)
  Accuracy factor for lattice sums       =   12.000


  Time limit =     300.00 seconds

  Maximum range for interatomic potentials =    100000.000000 Angstroms

  C6 terms to be calculated in real and reciprocal space 

  General interatomic potentials :

--------------------------------------------------------------------------------
Atom  Types   Potential         A         B         C         D     Cutoffs(Ang)
  1     2                                                            Min    Max 
--------------------------------------------------------------------------------
O    c Sr   c Buckingham    0.195E+04 0.337      19.2      0.00     1.200 12.000
O    c O    c Buckingham    0.139E+04 0.363      175.      0.00     1.200 12.000
O    c Y    c Buckingham    0.230E+05 0.242      0.00      0.00     1.200 12.000
--------------------------------------------------------------------------------

********************************************************************************
*  Output for configuration   1                                                *
********************************************************************************


  Components of energy : 

--------------------------------------------------------------------------------
  Interatomic potentials     =          89.23701906 eV
  Monopole - monopole (real) =        -384.80706055 eV
  Monopole - monopole (recip)=        -372.75369459 eV
  Monopole - monopole (total)=        -757.56075514 eV
  Dispersion (real+recip)    =         -14.38526985 eV
--------------------------------------------------------------------------------
  Total lattice energy       =        -682.70900594 eV
--------------------------------------------------------------------------------
  Total lattice energy       =          -65870.9829 kJ/(mole unit cells)
--------------------------------------------------------------------------------


  Number of variables =       87

  Maximum number of calculations  =          1500
  Maximum Hessian update interval =            10
  Maximum step size               =   1.000000000
  Maximum parameter tolerance     =   0.000010000
  Maximum function  tolerance     =   0.000010000
  Maximum gradient  tolerance     =   0.001000000
  Maximum gradient  component     =   0.010000000

  Symmetry not applied to optimisation

  Cell parameters to be optimised using strains

  Newton-Raphson optimiser to be used

  BFGS hessian update to be used

  Start of bulk optimisation :

  Cycle:      0 Energy:      -682.709006  Gnorm:      0.011885  CPU:    0.063
  ** Hessian calculated **
  Cycle:      1 Energy:      -682.711583  Gnorm:      0.000676  CPU:    0.109


  **** Optimisation achieved ****


  Final energy =    -682.71158373 eV
  Final Gnorm  =       0.00001466

  Components of energy : 

--------------------------------------------------------------------------------
  Interatomic potentials     =          89.20139768 eV
  Monopole - monopole (real) =        -384.85044424 eV
  Monopole - monopole (recip)=        -372.69198160 eV
  Monopole - monopole (total)=        -757.54242584 eV
  Dispersion (real+recip)    =         -14.37055557 eV
--------------------------------------------------------------------------------
  Total lattice energy       =        -682.71158373 eV
--------------------------------------------------------------------------------
  Total lattice energy       =          -65871.2316 kJ/(mole unit cells)
--------------------------------------------------------------------------------

  Final fractional coordinates of atoms :

--------------------------------------------------------------------------------
   No.  Atomic        x           y          z          Radius
        Label       (Frac)      (Frac)     (Frac)       (Angs) 
--------------------------------------------------------------------------------
     1  O     c     0.790000    0.807000    0.750000    0.000000
     2  O     c     0.576410    0.546818    0.750000    0.000000
     3  O     c     0.419800    0.400263    0.250000    0.000000
     4  O     c     0.014846    0.687171    0.250000    0.000000
     5  O     c     0.981367    0.259913    0.750000    0.000000
     6  O     c     0.481367    0.187169    0.750000    0.000000
     7  O     c     0.514845    0.759911    0.250000    0.000000
     8  O     c     0.618292    0.992760    0.250000    0.000000
     9  O     c     0.377919    0.954321    0.750000    0.000000
    10  O     c     0.877919    0.492761    0.750000    0.000000
    11  O     c     0.118291    0.454322    0.250000    0.000000
    12  O     c     0.706211    0.307001    0.250000    0.000000
    13  O     c     0.290000    0.640081    0.750000    0.000000
    14  O     c     0.919800    0.046819    0.250000    0.000000
    15  O     c     0.206211    0.140081    0.250000    0.000000
    16  O     c     0.076409    0.900265    0.750000    0.000000
    17  Sr    c     0.253500    0.827220    0.250000    0.000000
    18  Sr    c     0.742709    0.119862    0.750000    0.000000
    19  Sr    c     0.242709    0.327221    0.750000    0.000000
    20  Sr    c     0.753500    0.619863    0.250000    0.000000
    21  Y     c     0.928680    0.857687    0.250000    0.000000
    22  Y     c     0.067530    0.089396    0.750000    0.000000
    23  Y     c     0.567530    0.357686    0.750000    0.000000
    24  Y     c     0.428680    0.589395    0.250000    0.000000
    25  Y     c     0.916402    0.366564    0.250000    0.000000
    26  Y     c     0.079808    0.580520    0.750000    0.000000
    27  Y     c     0.579808    0.866563    0.750000    0.000000
    28  Y     c     0.416403    0.080518    0.250000    0.000000
--------------------------------------------------------------------------------

  Final Cartesian lattice vectors (Angstroms) :

       10.554952    0.001686   -0.000000
       -0.001998   12.524220   -0.000000
       -0.000000   -0.000000    3.523931


  Final cell parameters and derivatives :

--------------------------------------------------------------------------------
       a           10.554952 Angstrom     dE/de1(xx)    -0.000214 eV/strain
       b           12.524221 Angstrom     dE/de2(yy)    -0.000104 eV/strain
       c            3.523931 Angstrom     dE/de3(zz)     0.000019 eV/strain
       alpha       90.000000 Degrees      dE/de4(yz)    -0.000000 eV/strain
       beta        90.000000 Degrees      dE/de5(xz)    -0.000000 eV/strain
       gamma       89.999985 Degrees      dE/de6(xy)     0.000063 eV/strain
--------------------------------------------------------------------------------

  Primitive cell volume =           465.837361 Angs**3

  Density of cell =      4.697405 g/cm**3

  Non-primitive cell volume =           465.837361 Angs**3


  Final internal derivatives :

--------------------------------------------------------------------------------
   No.  Atomic          a             b             c           Radius
        Label          (eV)          (eV)          (eV)        (eV/Angs)
--------------------------------------------------------------------------------
      1 O     c       0.000000      0.000000      0.000000      0.000000
      2 O     c      -0.000102     -0.000023     -0.000000      0.000000
      3 O     c       0.000029     -0.000037     -0.000000      0.000000
      4 O     c       0.000170      0.000408      0.000000      0.000000
      5 O     c      -0.000027     -0.000121     -0.000000      0.000000
      6 O     c      -0.000028     -0.000091     -0.000000      0.000000
      7 O     c       0.000003      0.000115      0.000000      0.000000
      8 O     c       0.000230     -0.000363     -0.000000      0.000000
      9 O     c       0.000215      0.000068      0.000000      0.000000
     10 O     c       0.000025     -0.000033     -0.000000      0.000000
     11 O     c       0.000064      0.000025     -0.000000      0.000000
     12 O     c      -0.000073     -0.000036     -0.000000      0.000000
     13 O     c      -0.000026      0.000069      0.000000      0.000000
     14 O     c       0.000169      0.000643     -0.000000      0.000000
     15 O     c      -0.000050     -0.000088     -0.000000      0.000000
     16 O     c      -0.000296      0.000019     -0.000000      0.000000
     17 Sr    c       0.000043     -0.000008     -0.000000      0.000000
     18 Sr    c       0.000170      0.000226      0.000000      0.000000
     19 Sr    c       0.000027     -0.000007     -0.000000      0.000000
     20 Sr    c       0.000102      0.000360      0.000000      0.000000
     21 Y     c      -0.000159     -0.000355      0.000000      0.000000
     22 Y     c      -0.000112      0.000010     -0.000000      0.000000
     23 Y     c       0.000014     -0.000130     -0.000000      0.000000
     24 Y     c      -0.000113     -0.000093     -0.000000      0.000000
     25 Y     c      -0.000047      0.000091      0.000000      0.000000
     26 Y     c      -0.000099     -0.000160     -0.000000      0.000000
     27 Y     c       0.000214     -0.000006      0.000000      0.000000
     28 Y     c      -0.000061      0.000061      0.000000      0.000000
--------------------------------------------------------------------------------
  Maximum abs         0.000296      0.000643      0.000000      0.000000
--------------------------------------------------------------------------------


  Time to end of optimisation =       0.1563 seconds


  Peak dynamic memory used =       0.70 MB 


  Timing analysis for GULP :

--------------------------------------------------------------------------------
  Task / Subroutine                                          Time (Seconds)
--------------------------------------------------------------------------------
  Calculation of reciprocal space energy and derivatives          0.0625
  Calculation of real space energy and derivatives                0.0781
--------------------------------------------------------------------------------
  Total CPU time                                                  0.1563
--------------------------------------------------------------------------------


  Dump file written as temp.res                                                


  Job Finished at 14:36.28 14th June       2021                               

