********************************************************************************
*                       GENERAL UTILITY LATTICE PROGRAM                        *
*                                 Julian Gale                                  *
*                      Nanochemistry Research Institute                        *
*                           Department of Chemistry                            *
*                    Curtin University, Western Australia                      *
********************************************************************************
* Version = 4.3.5 * Last modified = 16th December 2015                         *
********************************************************************************
*  optimise     - perform optimisation run                                     *
*  conp         - constant pressure calculation                                *
********************************************************************************
* ASE calculation                                                              *
********************************************************************************


  Job Started  at 14:36.50 14th June       2021                               

  Number of CPUs =     1


  Total number of configurations input =   1

********************************************************************************
*  Input for Configuration =   1                                               *
********************************************************************************

  Formula = O20Ti4Y8                                                    

  Number of irreducible atoms/shells =      32


  Total number atoms/shells =      32

  Dimensionality = 3               :  Bulk   



  Cartesian lattice vectors (Angstroms) :

       10.782317    0.000000    0.000000
        0.000000    3.754961    0.000000
        0.000780    0.000000   11.627832

  Cell parameters (Angstroms/Degrees):

  a =      10.7823    alpha =  90.0000
  b =       3.7550    beta  =  89.9962
  c =      11.6278    gamma =  90.0000

  Initial cell volume =         470.778124 Angs**3

  Temperature of configuration =  0.000     K 

  Pressure of configuration =         0.000 GPa 

  Fractional coordinates of asymmetric unit :

--------------------------------------------------------------------------------
   No.  Atomic       x           y          z         Charge      Occupancy
        Label      (Frac)      (Frac)     (Frac)        (e)         (Frac)  
--------------------------------------------------------------------------------
      1 O     c    0.995000    0.250000    0.398000    -2.00000    1.000000    
      2 O     c    0.693194 *  0.750000 *  0.617248 *  -2.00000    1.000000    
      3 O     c    0.286369 *  0.250000 *  0.391821 *  -2.00000    1.000000    
      4 O     c    0.002141 *  0.250000 *  0.850401 *  -2.00000    1.000000    
      5 O     c    0.978021 *  0.750000 *  0.158164 *  -2.00000    1.000000    
      6 O     c    0.477722 *  0.750000 *  0.350676 *  -2.00000    1.000000    
      7 O     c    0.502010 *  0.250000 *  0.658427 *  -2.00000    1.000000    
      8 O     c    0.742966 *  0.250000 *  0.762893 *  -2.00000    1.000000    
      9 O     c    0.236920 *  0.750000 *  0.246139 *  -2.00000    1.000000    
     10 O     c    0.736830 *  0.750000 *  0.262694 *  -2.00000    1.000000    
     11 O     c    0.242902 *  0.250000 *  0.746010 *  -2.00000    1.000000    
     12 O     c    0.723845 *  0.250000 *  0.470295 *  -2.00000    1.000000    
     13 O     c    0.255346 *  0.750000 *  0.538643 *  -2.00000    1.000000    
     14 O     c    0.755626 *  0.750000 *  0.970259 *  -2.00000    1.000000    
     15 O     c    0.224442 *  0.250000 *  0.038630 *  -2.00000    1.000000    
     16 O     c    0.787105 *  0.250000 *  0.117110 *  -2.00000    1.000000    
     17 O     c    0.983611 *  0.750000 *  0.610708 *  -2.00000    1.000000    
     18 O     c    0.483818 *  0.750000 *  0.898105 *  -2.00000    1.000000    
     19 O     c    0.496247 *  0.250000 *  0.110868 *  -2.00000    1.000000    
     20 O     c    0.193178 *  0.750000 *  0.891739 *  -2.00000    1.000000    
     21 Ti    c    0.663736 *  0.250000 *  0.620408 *   4.00000    1.000000    
     22 Ti    c    0.316001 *  0.750000 *  0.388669 *   4.00000    1.000000    
     23 Ti    c    0.816260 *  0.750000 *  0.120251 *   4.00000    1.000000    
     24 Ti    c    0.163820 *  0.250000 *  0.888635 *   4.00000    1.000000    
     25 Y     c    0.619847 *  0.250000 *  0.936664 *   3.00000    1.000000    
     26 Y     c    0.360166 *  0.750000 *  0.072324 *   3.00000    1.000000    
     27 Y     c    0.859630 *  0.750000 *  0.436664 *   3.00000    1.000000    
     28 Y     c    0.119469 *  0.250000 *  0.572220 *   3.00000    1.000000    
     29 Y     c    0.601374 *  0.250000 *  0.293878 *   3.00000    1.000000    
     30 Y     c    0.378391 *  0.750000 *  0.715062 *   3.00000    1.000000    
     31 Y     c    0.878529 *  0.750000 *  0.793870 *   3.00000    1.000000    
     32 Y     c    0.101292 *  0.250000 *  0.215093 *   3.00000    1.000000    
--------------------------------------------------------------------------------



********************************************************************************
*  General input information                                                   *
********************************************************************************

  Species output for all configurations : 

--------------------------------------------------------------------------------
  Species    Type    Atomic    Atomic    Charge       Radii (Angs)     Library
                     Number     Mass       (e)     Cova   Ionic  VDW   Symbol
--------------------------------------------------------------------------------
    O        Core        8      16.00  -2.000000   0.730  0.000  1.360          
    Ti       Core       22      47.88   4.000000   1.470  0.000  2.190          
    Y        Core       39      88.91   3.000000   1.780  0.000  2.660          
--------------------------------------------------------------------------------


  Lattice summation method               =    Ewald          (3-D)
                                         =    Parry          (2-D)
                                         =    Saunders et al (1-D)
  Accuracy factor for lattice sums       =   12.000


  Time limit =     300.00 seconds

  Maximum range for interatomic potentials =    100000.000000 Angstroms

  C6 terms to be calculated in real/reciprocal space by one-centre decomposition

  General interatomic potentials :

--------------------------------------------------------------------------------
Atom  Types   Potential         A         B         C         D     Cutoffs(Ang)
  1     2                                                            Min    Max 
--------------------------------------------------------------------------------
O    c Ti   c Buckingham    0.459E+04 0.261      0.00      0.00     1.200 12.000
O    c O    c Buckingham    0.139E+04 0.363      175.      0.00     1.200 12.000
O    c Y    c Buckingham    0.230E+05 0.242      0.00      0.00     1.200 12.000
--------------------------------------------------------------------------------

********************************************************************************
*  Output for configuration   1                                                *
********************************************************************************


  Components of energy : 

--------------------------------------------------------------------------------
  Interatomic potentials     =         163.79191172 eV
  Monopole - monopole (real) =        -646.74672585 eV
  Monopole - monopole (recip)=        -533.60666593 eV
  Monopole - monopole (total)=       -1180.35339179 eV
  Dispersion (real+recip)    =         -28.65398381 eV
--------------------------------------------------------------------------------
  Total lattice energy       =       -1045.21546387 eV
--------------------------------------------------------------------------------
  Total lattice energy       =         -100847.3147 kJ/(mole unit cells)
--------------------------------------------------------------------------------


  Number of variables =       99

  Maximum number of calculations  =          1500
  Maximum Hessian update interval =            10
  Maximum step size               =   1.000000000
  Maximum parameter tolerance     =   0.000010000
  Maximum function  tolerance     =   0.000010000
  Maximum gradient  tolerance     =   0.001000000
  Maximum gradient  component     =   0.010000000

  Symmetry not applied to optimisation

  Cell parameters to be optimised using strains

  Newton-Raphson optimiser to be used

  BFGS hessian update to be used

  Start of bulk optimisation :

  Cycle:      0 Energy:     -1045.215464  Gnorm:      0.008605  CPU:    0.031
  ** Hessian calculated **
  Cycle:      1 Energy:     -1045.217096  Gnorm:      0.000389  CPU:    0.063


  **** Optimisation achieved ****


  Final energy =   -1045.21709618 eV
  Final Gnorm  =       0.00000801

  Components of energy : 

--------------------------------------------------------------------------------
  Interatomic potentials     =         163.78194393 eV
  Monopole - monopole (real) =        -646.72242554 eV
  Monopole - monopole (recip)=        -533.62822514 eV
  Monopole - monopole (total)=       -1180.35065069 eV
  Dispersion (real+recip)    =         -28.64838942 eV
--------------------------------------------------------------------------------
  Total lattice energy       =       -1045.21709618 eV
--------------------------------------------------------------------------------
  Total lattice energy       =         -100847.4722 kJ/(mole unit cells)
--------------------------------------------------------------------------------

  Final fractional coordinates of atoms :

--------------------------------------------------------------------------------
   No.  Atomic        x           y          z          Radius
        Label       (Frac)      (Frac)     (Frac)       (Angs) 
--------------------------------------------------------------------------------
     1  O     c     0.995000    0.250000    0.398000    0.000000
     2  O     c     0.690889    0.750000    0.617165    0.000000
     3  O     c     0.286043    0.250000    0.391734    0.000000
     4  O     c     0.000337    0.250000    0.850658    0.000000
     5  O     c     0.976594    0.750000    0.158241    0.000000
     6  O     c     0.476594    0.750000    0.350658    0.000000
     7  O     c     0.500337    0.250000    0.658241    0.000000
     8  O     c     0.741369    0.250000    0.762802    0.000000
     9  O     c     0.235562    0.750000    0.246097    0.000000
    10  O     c     0.735562    0.750000    0.262802    0.000000
    11  O     c     0.241369    0.250000    0.746097    0.000000
    12  O     c     0.723347    0.250000    0.470350    0.000000
    13  O     c     0.253584    0.750000    0.538549    0.000000
    14  O     c     0.753584    0.750000    0.970350    0.000000
    15  O     c     0.223347    0.250000    0.038549    0.000000
    16  O     c     0.786043    0.250000    0.117165    0.000000
    17  O     c     0.981931    0.750000    0.610899    0.000000
    18  O     c     0.481931    0.750000    0.898000    0.000000
    19  O     c     0.495000    0.250000    0.110899    0.000000
    20  O     c     0.190888    0.750000    0.891734    0.000000
    21  Ti    c     0.662109    0.250000    0.620230    0.000000
    22  Ti    c     0.314823    0.750000    0.388669    0.000000
    23  Ti    c     0.814823    0.750000    0.120230    0.000000
    24  Ti    c     0.162109    0.250000    0.888669    0.000000
    25  Y     c     0.617991    0.250000    0.936445    0.000000
    26  Y     c     0.358940    0.750000    0.072454    0.000000
    27  Y     c     0.858940    0.750000    0.436445    0.000000
    28  Y     c     0.117991    0.250000    0.572454    0.000000
    29  Y     c     0.600133    0.250000    0.294019    0.000000
    30  Y     c     0.376799    0.750000    0.714880    0.000000
    31  Y     c     0.876799    0.750000    0.794019    0.000000
    32  Y     c     0.100133    0.250000    0.214880    0.000000
--------------------------------------------------------------------------------

  Final Cartesian lattice vectors (Angstroms) :

       10.785252   -0.000000   -0.000361
       -0.000000    3.754903    0.000000
        0.000391    0.000000   11.623416


  Final cell parameters and derivatives :

--------------------------------------------------------------------------------
       a           10.785252 Angstrom     dE/de1(xx)    -0.000028 eV/strain
       b            3.754903 Angstrom     dE/de2(yy)     0.000063 eV/strain
       c           11.623416 Angstrom     dE/de3(zz)     0.000084 eV/strain
       alpha       90.000000 Degrees      dE/de4(yz)     0.000000 eV/strain
       beta        89.999987 Degrees      dE/de5(xz)     0.000058 eV/strain
       gamma       90.000000 Degrees      dE/de6(xy)    -0.000000 eV/strain
--------------------------------------------------------------------------------

  Primitive cell volume =           470.720179 Angs**3

  Density of cell =      4.313687 g/cm**3

  Non-primitive cell volume =           470.720179 Angs**3


  Final internal derivatives :

--------------------------------------------------------------------------------
   No.  Atomic          a             b             c           Radius
        Label          (eV)          (eV)          (eV)        (eV/Angs)
--------------------------------------------------------------------------------
      1 O     c       0.000000      0.000000      0.000000      0.000000
      2 O     c       0.000186      0.000000      0.000074      0.000000
      3 O     c      -0.000079      0.000000      0.000026      0.000000
      4 O     c       0.000017      0.000000      0.000024      0.000000
      5 O     c      -0.000007     -0.000000     -0.000045      0.000000
      6 O     c      -0.000005      0.000000     -0.000003      0.000000
      7 O     c      -0.000000     -0.000000     -0.000017      0.000000
      8 O     c       0.000071     -0.000000      0.000055      0.000000
      9 O     c       0.000039     -0.000000      0.000027      0.000000
     10 O     c      -0.000044      0.000000     -0.000004      0.000000
     11 O     c       0.000036     -0.000000     -0.000079      0.000000
     12 O     c      -0.000062     -0.000000     -0.000235      0.000000
     13 O     c       0.000130     -0.000000     -0.000148      0.000000
     14 O     c      -0.000013      0.000000     -0.000029      0.000000
     15 O     c       0.000036     -0.000000      0.000184      0.000000
     16 O     c      -0.000023     -0.000000      0.000003      0.000000
     17 O     c      -0.000073     -0.000000      0.000051      0.000000
     18 O     c      -0.000073      0.000000     -0.000002      0.000000
     19 O     c      -0.000020     -0.000000      0.000007      0.000000
     20 O     c       0.000086      0.000000     -0.000033      0.000000
     21 Ti    c      -0.000042     -0.000000      0.000041      0.000000
     22 Ti    c      -0.000029      0.000000      0.000053      0.000000
     23 Ti    c      -0.000016      0.000000      0.000044      0.000000
     24 Ti    c      -0.000024     -0.000000     -0.000063      0.000000
     25 Y     c       0.000033      0.000000      0.000005      0.000000
     26 Y     c      -0.000068      0.000000     -0.000075      0.000000
     27 Y     c      -0.000200     -0.000000      0.000069      0.000000
     28 Y     c       0.000262      0.000000      0.000483      0.000000
     29 Y     c       0.000027     -0.000000      0.000051      0.000000
     30 Y     c      -0.000058      0.000000      0.000025      0.000000
     31 Y     c      -0.000082     -0.000000     -0.000003      0.000000
     32 Y     c      -0.000025      0.000000      0.000018      0.000000
--------------------------------------------------------------------------------
  Maximum abs         0.000262      0.000000      0.000483      0.000000
--------------------------------------------------------------------------------


  Time to end of optimisation =       0.0938 seconds


  Peak dynamic memory used =       0.76 MB 


  Timing analysis for GULP :

--------------------------------------------------------------------------------
  Task / Subroutine                                          Time (Seconds)
--------------------------------------------------------------------------------
  Calculation of real space energy and derivatives                0.0938
--------------------------------------------------------------------------------
  Total CPU time                                                  0.0938
--------------------------------------------------------------------------------


  Dump file written as temp.res                                                


  Job Finished at 14:36.50 14th June       2021                               

