********************************************************************************
*                       GENERAL UTILITY LATTICE PROGRAM                        *
*                                 Julian Gale                                  *
*                      Nanochemistry Research Institute                        *
*                           Department of Chemistry                            *
*                    Curtin University, Western Australia                      *
********************************************************************************
* Version = 4.3.5 * Last modified = 16th December 2015                         *
********************************************************************************
*  optimise     - perform optimisation run                                     *
*  conp         - constant pressure calculation                                *
********************************************************************************
* ASE calculation                                                              *
********************************************************************************


  Job Started  at 14:36.59 14th June       2021                               

  Number of CPUs =     1


  Total number of configurations input =   1

********************************************************************************
*  Input for Configuration =   1                                               *
********************************************************************************

  Formula = O12Sr4Ti4                                                   

  Number of irreducible atoms/shells =      20


  Total number atoms/shells =      20

  Dimensionality = 3               :  Bulk   



  Cartesian lattice vectors (Angstroms) :

        5.593383    0.000000    0.000000
        0.000000    5.593383    0.000000
        0.000000    0.000000    7.910391

  Cell parameters (Angstroms/Degrees):

  a =       5.5934    alpha =  90.0000
  b =       5.5934    beta  =  90.0000
  c =       7.9104    gamma =  90.0000

  Initial cell volume =         247.483966 Angs**3

  Temperature of configuration =  0.000     K 

  Pressure of configuration =         0.000 GPa 

  Fractional coordinates of asymmetric unit :

--------------------------------------------------------------------------------
   No.  Atomic       x           y          z         Charge      Occupancy
        Label      (Frac)      (Frac)     (Frac)        (e)         (Frac)  
--------------------------------------------------------------------------------
      1 O     c    0.000000    0.000000    0.750000    -2.00000    1.000000    
      2 O     c    0.248536 *  0.251464 *  0.500007 *  -2.00000    1.000000    
      3 O     c    0.751464 *  0.748536 *  0.500007 *  -2.00000    1.000000    
      4 O     c    0.748536 *  0.751464 *  0.999993 *  -2.00000    1.000000    
      5 O     c    0.251464 *  0.248536 *  0.999993 *  -2.00000    1.000000    
      6 O     c    0.751464 *  0.251464 *  0.999993 *  -2.00000    1.000000    
      7 O     c    0.248536 *  0.748536 *  0.999993 *  -2.00000    1.000000    
      8 O     c    0.500000 *  0.500000 *  0.250000 *  -2.00000    1.000000    
      9 O     c    0.500000 *  0.500000 *  0.750000 *  -2.00000    1.000000    
     10 O     c    0.251464 *  0.751464 *  0.500007 *  -2.00000    1.000000    
     11 O     c    0.000000 *  0.000000 *  0.250000 *  -2.00000    1.000000    
     12 O     c    0.748536 *  0.248536 *  0.500007 *  -2.00000    1.000000    
     13 Sr    c    0.500000 *  0.000000 *  0.750000 *   2.00000    1.000000    
     14 Sr    c    0.500000 *  0.000000 *  0.250000 *   2.00000    1.000000    
     15 Sr    c    0.000000 *  0.500000 *  0.750000 *   2.00000    1.000000    
     16 Sr    c    0.000000 *  0.500000 *  0.250000 *   2.00000    1.000000    
     17 Ti    c    0.500000 *  0.500000 *  0.000015 *   4.00000    1.000000    
     18 Ti    c    0.500000 *  0.500000 *  0.499985 *   4.00000    1.000000    
     19 Ti    c    0.000000 *  0.000000 *  0.499985 *   4.00000    1.000000    
     20 Ti    c    0.000000 *  0.000000 *  0.000015 *   4.00000    1.000000    
--------------------------------------------------------------------------------



********************************************************************************
*  General input information                                                   *
********************************************************************************

  Species output for all configurations : 

--------------------------------------------------------------------------------
  Species    Type    Atomic    Atomic    Charge       Radii (Angs)     Library
                     Number     Mass       (e)     Cova   Ionic  VDW   Symbol
--------------------------------------------------------------------------------
    O        Core        8      16.00  -2.000000   0.730  0.000  1.360          
    Sr       Core       38      87.62   2.000000   1.120  0.000  1.670          
    Ti       Core       22      47.88   4.000000   1.470  0.000  2.190          
--------------------------------------------------------------------------------


  Lattice summation method               =    Ewald          (3-D)
                                         =    Parry          (2-D)
                                         =    Saunders et al (1-D)
  Accuracy factor for lattice sums       =   12.000


  Time limit =     300.00 seconds

  Maximum range for interatomic potentials =    100000.000000 Angstroms

  C6 terms to be calculated in real and reciprocal space 

  General interatomic potentials :

--------------------------------------------------------------------------------
Atom  Types   Potential         A         B         C         D     Cutoffs(Ang)
  1     2                                                            Min    Max 
--------------------------------------------------------------------------------
O    c Sr   c Buckingham    0.195E+04 0.337      19.2      0.00     1.200 12.000
O    c Ti   c Buckingham    0.459E+04 0.261      0.00      0.00     1.200 12.000
O    c O    c Buckingham    0.139E+04 0.363      175.      0.00     1.200 12.000
--------------------------------------------------------------------------------

********************************************************************************
*  Output for configuration   1                                                *
********************************************************************************


  Components of energy : 

--------------------------------------------------------------------------------
  Interatomic potentials     =         110.74465379 eV
  Monopole - monopole (real) =        -344.25081055 eV
  Monopole - monopole (recip)=        -376.76128093 eV
  Monopole - monopole (total)=        -721.01209148 eV
  Dispersion (real+recip)    =         -24.06563258 eV
--------------------------------------------------------------------------------
  Total lattice energy       =        -634.33307027 eV
--------------------------------------------------------------------------------
  Total lattice energy       =          -61203.4446 kJ/(mole unit cells)
--------------------------------------------------------------------------------


  Number of variables =       63

  Maximum number of calculations  =          1500
  Maximum Hessian update interval =            10
  Maximum step size               =   1.000000000
  Maximum parameter tolerance     =   0.000010000
  Maximum function  tolerance     =   0.000010000
  Maximum gradient  tolerance     =   0.001000000
  Maximum gradient  component     =   0.010000000

  Symmetry not applied to optimisation

  Cell parameters to be optimised using strains

  Newton-Raphson optimiser to be used

  BFGS hessian update to be used

  Start of bulk optimisation :

  Cycle:      0 Energy:      -634.333070  Gnorm:      0.007463  CPU:    0.031
  ** Hessian calculated **
  Cycle:      1 Energy:      -634.334185  Gnorm:      0.000139  CPU:    0.047


  **** Optimisation achieved ****


  Final energy =    -634.33418508 eV
  Final Gnorm  =       0.00000035

  Components of energy : 

--------------------------------------------------------------------------------
  Interatomic potentials     =         110.74479559 eV
  Monopole - monopole (real) =        -344.25312049 eV
  Monopole - monopole (recip)=        -376.76000667 eV
  Monopole - monopole (total)=        -721.01312716 eV
  Dispersion (real+recip)    =         -24.06585351 eV
--------------------------------------------------------------------------------
  Total lattice energy       =        -634.33418508 eV
--------------------------------------------------------------------------------
  Total lattice energy       =          -61203.5522 kJ/(mole unit cells)
--------------------------------------------------------------------------------

  Final fractional coordinates of atoms :

--------------------------------------------------------------------------------
   No.  Atomic        x           y          z          Radius
        Label       (Frac)      (Frac)     (Frac)       (Angs) 
--------------------------------------------------------------------------------
     1  O     c     0.000000    0.000000    0.750000    0.000000
     2  O     c     0.250000    0.250000    0.500000    0.000000
     3  O     c     0.750000    0.750000    0.500000    0.000000
     4  O     c     0.750000    0.750000    0.000000    0.000000
     5  O     c     0.250000    0.250000    0.000000    0.000000
     6  O     c     0.750000    0.250000    0.000000    0.000000
     7  O     c     0.250000    0.750000    0.000000    0.000000
     8  O     c     0.500000    0.500000    0.250000    0.000000
     9  O     c     0.500000    0.500000    0.750000    0.000000
    10  O     c     0.250000    0.750000    0.500000    0.000000
    11  O     c     0.000000    0.000000    0.250000    0.000000
    12  O     c     0.750000    0.250000    0.500000    0.000000
    13  Sr    c     0.500000    1.000000    0.750000    0.000000
    14  Sr    c     0.500000    1.000000    0.250000    0.000000
    15  Sr    c     1.000000    0.500000    0.750000    0.000000
    16  Sr    c     1.000000    0.500000    0.250000    0.000000
    17  Ti    c     0.500000    0.500000    1.000000    0.000000
    18  Ti    c     0.500000    0.500000    0.500000    0.000000
    19  Ti    c     1.000000    1.000000    0.500000    0.000000
    20  Ti    c     1.000000    1.000000    1.000000    0.000000
--------------------------------------------------------------------------------

  Final Cartesian lattice vectors (Angstroms) :

        5.593438    0.000000   -0.000000
        0.000000    5.593438   -0.000000
       -0.000000   -0.000000    7.910316


  Final cell parameters and derivatives :

--------------------------------------------------------------------------------
       a            5.593438 Angstrom     dE/de1(xx)     0.000006 eV/strain
       b            5.593438 Angstrom     dE/de2(yy)     0.000006 eV/strain
       c            7.910316 Angstrom     dE/de3(zz)     0.000002 eV/strain
       alpha       90.000000 Degrees      dE/de4(yz)    -0.000000 eV/strain
       beta        90.000000 Degrees      dE/de5(xz)    -0.000000 eV/strain
       gamma       90.000000 Degrees      dE/de6(xy)     0.000000 eV/strain
--------------------------------------------------------------------------------

  Primitive cell volume =           247.486481 Angs**3

  Density of cell =      4.924936 g/cm**3

  Non-primitive cell volume =           247.486481 Angs**3


  Final internal derivatives :

--------------------------------------------------------------------------------
   No.  Atomic          a             b             c           Radius
        Label          (eV)          (eV)          (eV)        (eV/Angs)
--------------------------------------------------------------------------------
      1 O     c       0.000000      0.000000      0.000000      0.000000
      2 O     c      -0.000004      0.000004     -0.000003      0.000000
      3 O     c       0.000004     -0.000004     -0.000003      0.000000
      4 O     c      -0.000004      0.000004      0.000003      0.000000
      5 O     c       0.000004     -0.000004      0.000003      0.000000
      6 O     c       0.000004      0.000004      0.000003      0.000000
      7 O     c      -0.000004     -0.000004      0.000003      0.000000
      8 O     c       0.000000      0.000000     -0.000000      0.000000
      9 O     c      -0.000000     -0.000000     -0.000000      0.000000
     10 O     c       0.000004      0.000004     -0.000003      0.000000
     11 O     c      -0.000000     -0.000000     -0.000000      0.000000
     12 O     c      -0.000004     -0.000004     -0.000003      0.000000
     13 Sr    c      -0.000000     -0.000000     -0.000000      0.000000
     14 Sr    c      -0.000000     -0.000000     -0.000000      0.000000
     15 Sr    c      -0.000000     -0.000000     -0.000000      0.000000
     16 Sr    c      -0.000000     -0.000000     -0.000000      0.000000
     17 Ti    c      -0.000000     -0.000000     -0.000005      0.000000
     18 Ti    c      -0.000000     -0.000000      0.000005      0.000000
     19 Ti    c      -0.000000     -0.000000      0.000005      0.000000
     20 Ti    c      -0.000000     -0.000000     -0.000005      0.000000
--------------------------------------------------------------------------------
  Maximum abs         0.000004      0.000004      0.000005      0.000000
--------------------------------------------------------------------------------


  Time to end of optimisation =       0.0781 seconds


  Peak dynamic memory used =       0.60 MB 


  Timing analysis for GULP :

--------------------------------------------------------------------------------
  Task / Subroutine                                          Time (Seconds)
--------------------------------------------------------------------------------
  Calculation of real space energy and derivatives                0.0781
--------------------------------------------------------------------------------
  Total CPU time                                                  0.0781
--------------------------------------------------------------------------------


  Dump file written as temp.res                                                


  Job Finished at 14:36.59 14th June       2021                               

