********************************************************************************
*                       GENERAL UTILITY LATTICE PROGRAM                        *
*                                 Julian Gale                                  *
*                      Nanochemistry Research Institute                        *
*                           Department of Chemistry                            *
*                    Curtin University, Western Australia                      *
********************************************************************************
* Version = 4.3.5 * Last modified = 16th December 2015                         *
********************************************************************************
*  optimise     - perform optimisation run                                     *
*  conp         - constant pressure calculation                                *
********************************************************************************
* ASE calculation                                                              *
********************************************************************************


  Job Started  at 14:36.52 14th June       2021                               

  Number of CPUs =     1


  Total number of configurations input =   1

********************************************************************************
*  Input for Configuration =   1                                               *
********************************************************************************

  Formula = O16Ti8                                                      

  Number of irreducible atoms/shells =      24


  Total number atoms/shells =      24

  Dimensionality = 3               :  Bulk   



  Cartesian lattice vectors (Angstroms) :

        9.186540    0.000000    0.000000
       -0.000563    5.396340    0.000000
       -0.002302    0.001306    5.252016

  Cell parameters (Angstroms/Degrees):

  a =       9.1865    alpha =  89.9857
  b =       5.3963    beta  =  90.0251
  c =       5.2520    gamma =  90.0060

  Initial cell volume =         260.361845 Angs**3

  Temperature of configuration =  0.000     K 

  Pressure of configuration =         0.000 GPa 

  Fractional coordinates of asymmetric unit :

--------------------------------------------------------------------------------
   No.  Atomic       x           y          z         Charge      Occupancy
        Label      (Frac)      (Frac)     (Frac)        (e)         (Frac)  
--------------------------------------------------------------------------------
      1 O     c    0.509500    0.149100    0.316500    -2.00000    1.000000    
      2 O     c    0.223843 *  0.385320 *  0.012452 *  -2.00000    1.000000    
      3 O     c    0.761256 *  0.612971 *  0.971545 *  -2.00000    1.000000    
      4 O     c    0.724292 *  0.113279 *  0.970460 *  -2.00000    1.000000    
      5 O     c    0.261208 *  0.885143 *  0.012220 *  -2.00000    1.000000    
      6 O     c    0.761299 *  0.885297 *  0.471565 *  -2.00000    1.000000    
      7 O     c    0.224090 *  0.113132 *  0.512448 *  -2.00000    1.000000    
      8 O     c    0.475629 *  0.649696 *  0.161175 *  -2.00000    1.000000    
      9 O     c    0.509429 *  0.348154 *  0.819452 *  -2.00000    1.000000    
     10 O     c    0.009302 *  0.347346 *  0.662257 *  -2.00000    1.000000    
     11 O     c    0.975758 *  0.650691 *  0.322683 *  -2.00000    1.000000    
     12 O     c    0.261306 *  0.612961 *  0.512354 *  -2.00000    1.000000    
     13 O     c    0.475753 *  0.848660 *  0.660976 *  -2.00000    1.000000    
     14 O     c    0.975911 *  0.847329 *  0.822619 *  -2.00000    1.000000    
     15 O     c    0.009373 *  0.150706 *  0.162434 *  -2.00000    1.000000    
     16 O     c    0.723584 *  0.384885 *  0.471072 *  -2.00000    1.000000    
     17 Ti    c    0.363241 *  0.598175 *  0.839845 *   4.00000    1.000000    
     18 Ti    c    0.621896 *  0.399874 *  0.142285 *   4.00000    1.000000    
     19 Ti    c    0.121876 *  0.400273 *  0.340488 *   4.00000    1.000000    
     20 Ti    c    0.863282 *  0.597845 *  0.643900 *   4.00000    1.000000    
     21 Ti    c    0.621973 *  0.098087 *  0.642584 *   4.00000    1.000000    
     22 Ti    c    0.363288 *  0.900070 *  0.339415 *   4.00000    1.000000    
     23 Ti    c    0.863343 *  0.900311 *  0.143801 *   4.00000    1.000000    
     24 Ti    c    0.121863 *  0.097974 *  0.840486 *   4.00000    1.000000    
--------------------------------------------------------------------------------



********************************************************************************
*  General input information                                                   *
********************************************************************************

  Species output for all configurations : 

--------------------------------------------------------------------------------
  Species    Type    Atomic    Atomic    Charge       Radii (Angs)     Library
                     Number     Mass       (e)     Cova   Ionic  VDW   Symbol
--------------------------------------------------------------------------------
    O        Core        8      16.00  -2.000000   0.730  0.000  1.360          
    Ti       Core       22      47.88   4.000000   1.470  0.000  2.190          
--------------------------------------------------------------------------------


  Lattice summation method               =    Ewald          (3-D)
                                         =    Parry          (2-D)
                                         =    Saunders et al (1-D)
  Accuracy factor for lattice sums       =   12.000


  Time limit =     300.00 seconds

  Maximum range for interatomic potentials =    100000.000000 Angstroms

  C6 terms to be calculated in real/reciprocal space by one-centre decomposition

  General interatomic potentials :

--------------------------------------------------------------------------------
Atom  Types   Potential         A         B         C         D     Cutoffs(Ang)
  1     2                                                            Min    Max 
--------------------------------------------------------------------------------
O    c Ti   c Buckingham    0.459E+04 0.261      0.00      0.00     1.200 12.000
O    c O    c Buckingham    0.139E+04 0.363      175.      0.00     1.200 12.000
--------------------------------------------------------------------------------

********************************************************************************
*  Output for configuration   1                                                *
********************************************************************************


  Components of energy : 

--------------------------------------------------------------------------------
  Interatomic potentials     =         182.10117494 eV
  Monopole - monopole (real) =        -564.21650352 eV
  Monopole - monopole (recip)=        -563.92799034 eV
  Monopole - monopole (total)=       -1128.14449386 eV
  Dispersion (real+recip)    =         -41.23053591 eV
--------------------------------------------------------------------------------
  Total lattice energy       =        -987.27385483 eV
--------------------------------------------------------------------------------
  Total lattice energy       =          -95256.8351 kJ/(mole unit cells)
--------------------------------------------------------------------------------


  Number of variables =       75

  Maximum number of calculations  =          1500
  Maximum Hessian update interval =            10
  Maximum step size               =   1.000000000
  Maximum parameter tolerance     =   0.000010000
  Maximum function  tolerance     =   0.000010000
  Maximum gradient  tolerance     =   0.001000000
  Maximum gradient  component     =   0.010000000

  Symmetry not applied to optimisation

  Cell parameters to be optimised using strains

  Newton-Raphson optimiser to be used

  BFGS hessian update to be used

  Start of bulk optimisation :

  Cycle:      0 Energy:      -987.273855  Gnorm:      0.009507  CPU:    0.031
  ** Hessian calculated **
  Cycle:      1 Energy:      -987.281485  Gnorm:      0.001282  CPU:    0.047


  **** Optimisation achieved ****


  Final energy =    -987.28148995 eV
  Final Gnorm  =       0.00007754

  Components of energy : 

--------------------------------------------------------------------------------
  Interatomic potentials     =         182.13380998 eV
  Monopole - monopole (real) =        -564.26480395 eV
  Monopole - monopole (recip)=        -563.90378302 eV
  Monopole - monopole (total)=       -1128.16858697 eV
  Dispersion (real+recip)    =         -41.24671296 eV
--------------------------------------------------------------------------------
  Total lattice energy       =        -987.28148995 eV
--------------------------------------------------------------------------------
  Total lattice energy       =          -95257.5718 kJ/(mole unit cells)
--------------------------------------------------------------------------------

  Final fractional coordinates of atoms :

--------------------------------------------------------------------------------
   No.  Atomic        x           y          z          Radius
        Label       (Frac)      (Frac)     (Frac)       (Angs) 
--------------------------------------------------------------------------------
     1  O     c     0.509500    0.149100    0.316500    0.000000
     2  O     c     0.224009    0.383679    0.006404    0.000000
     3  O     c     0.761511    0.611034    0.966086    0.000000
     4  O     c     0.724010    0.111034    0.966087    0.000000
     5  O     c     0.261511    0.883679    0.006404    0.000000
     6  O     c     0.761511    0.883679    0.466086    0.000000
     7  O     c     0.224009    0.111034    0.506405    0.000000
     8  O     c     0.476019    0.649099    0.155986    0.000000
     9  O     c     0.509502    0.345616    0.816503    0.000000
    10  O     c     0.009501    0.345614    0.655986    0.000000
    11  O     c     0.976019    0.649098    0.316504    0.000000
    12  O     c     0.261512    0.611034    0.506404    0.000000
    13  O     c     0.476019    0.845616    0.655986    0.000000
    14  O     c     0.976019    0.845615    0.816504    0.000000
    15  O     c     0.009502    0.149099    0.155986    0.000000
    16  O     c     0.724009    0.383678    0.466086    0.000000
    17  Ti    c     0.363512    0.596162    0.834341    0.000000
    18  Ti    c     0.622009    0.398551    0.138150    0.000000
    19  Ti    c     0.122010    0.398551    0.334340    0.000000
    20  Ti    c     0.863512    0.596162    0.638149    0.000000
    21  Ti    c     0.622011    0.096162    0.638152    0.000000
    22  Ti    c     0.363511    0.898552    0.334340    0.000000
    23  Ti    c     0.863512    0.898551    0.138150    0.000000
    24  Ti    c     0.122010    0.096162    0.834340    0.000000
--------------------------------------------------------------------------------

  Final Cartesian lattice vectors (Angstroms) :

        9.188222    0.000476    0.002018
       -0.000283    5.395574   -0.000671
       -0.001149    0.000653    5.252532


  Final cell parameters and derivatives :

--------------------------------------------------------------------------------
       a            9.188222 Angstrom     dE/de1(xx)     0.000460 eV/strain
       b            5.395574 Angstrom     dE/de2(yy)     0.000425 eV/strain
       c            5.252533 Angstrom     dE/de3(zz)     0.001123 eV/strain
       alpha       90.000000 Degrees      dE/de4(yz)    -0.000132 eV/strain
       beta        89.999951 Degrees      dE/de5(xz)     0.000451 eV/strain
       gamma       90.000044 Degrees      dE/de6(xy)    -0.000026 eV/strain
--------------------------------------------------------------------------------

  Primitive cell volume =           260.398149 Angs**3

  Density of cell =      4.075174 g/cm**3

  Non-primitive cell volume =           260.398149 Angs**3


  Final internal derivatives :

--------------------------------------------------------------------------------
   No.  Atomic          a             b             c           Radius
        Label          (eV)          (eV)          (eV)        (eV/Angs)
--------------------------------------------------------------------------------
      1 O     c       0.000000      0.000000      0.000000      0.000000
      2 O     c      -0.000233      0.000060     -0.000047      0.000000
      3 O     c       0.000042      0.000001      0.000013      0.000000
      4 O     c      -0.000374     -0.000027      0.000351      0.000000
      5 O     c      -0.000111      0.000015      0.000100      0.000000
      6 O     c       0.000250     -0.000084     -0.000298      0.000000
      7 O     c       0.000422      0.000047      0.000017      0.000000
      8 O     c      -0.000178     -0.000023      0.000218      0.000000
      9 O     c       0.000145      0.000194     -0.000321      0.000000
     10 O     c       0.000040     -0.000034     -0.000093      0.000000
     11 O     c      -0.000017      0.000006     -0.000097      0.000000
     12 O     c       0.000197     -0.000162     -0.000016      0.000000
     13 O     c      -0.000448      0.000017     -0.000040      0.000000
     14 O     c      -0.000020     -0.000026     -0.000082      0.000000
     15 O     c       0.000042      0.000001     -0.000052      0.000000
     16 O     c      -0.000254     -0.000036     -0.000164      0.000000
     17 Ti    c      -0.000199     -0.000068      0.000281      0.000000
     18 Ti    c       0.000241     -0.000047     -0.000092      0.000000
     19 Ti    c      -0.000048      0.000013     -0.000166      0.000000
     20 Ti    c       0.000096      0.000064      0.000045      0.000000
     21 Ti    c       0.004007     -0.000354      0.003698      0.000000
     22 Ti    c      -0.000569     -0.000250     -0.000304      0.000000
     23 Ti    c       0.000005     -0.000006     -0.000140      0.000000
     24 Ti    c       0.000160     -0.000005     -0.000053      0.000000
--------------------------------------------------------------------------------
  Maximum abs         0.004007      0.000354      0.003698      0.000000
--------------------------------------------------------------------------------


  Time to end of optimisation =       0.0781 seconds


  Peak dynamic memory used =       0.65 MB 


  Timing analysis for GULP :

--------------------------------------------------------------------------------
  Task / Subroutine                                          Time (Seconds)
--------------------------------------------------------------------------------
  Calculation of real space energy and derivatives                0.0469
--------------------------------------------------------------------------------
  Total CPU time                                                  0.0781
--------------------------------------------------------------------------------


  Dump file written as temp.res                                                


  Job Finished at 14:36.52 14th June       2021                               

