********************************************************************************
*                       GENERAL UTILITY LATTICE PROGRAM                        *
*                                 Julian Gale                                  *
*                      Nanochemistry Research Institute                        *
*                           Department of Chemistry                            *
*                    Curtin University, Western Australia                      *
********************************************************************************
* Version = 4.3.5 * Last modified = 16th December 2015                         *
********************************************************************************
*  optimise     - perform optimisation run                                     *
*  conp         - constant pressure calculation                                *
********************************************************************************
* ASE calculation                                                              *
********************************************************************************


  Job Started  at 14:36.37 14th June       2021                               

  Number of CPUs =     1


  Total number of configurations input =   1

********************************************************************************
*  Input for Configuration =   1                                               *
********************************************************************************

  Formula = O48Y32                                                      

  Number of irreducible atoms/shells =      80


  Total number atoms/shells =      80

  Dimensionality = 3               :  Bulk   



  Cartesian lattice vectors (Angstroms) :

       11.083258    0.000000    0.000000
        0.000020   11.081636    0.000000
       -0.001218   -0.000157   11.082714

  Cell parameters (Angstroms/Degrees):

  a =      11.0833    alpha =  90.0008
  b =      11.0816    beta  =  90.0063
  c =      11.0827    gamma =  89.9999

  Initial cell volume =        1361.185917 Angs**3

  Temperature of configuration =  0.000     K 

  Pressure of configuration =         0.000 GPa 

  Fractional coordinates of asymmetric unit :

--------------------------------------------------------------------------------
   No.  Atomic       x           y          z         Charge      Occupancy
        Label      (Frac)      (Frac)     (Frac)        (e)         (Frac)  
--------------------------------------------------------------------------------
      1 O     c    0.111000    0.654000    0.378000    -2.00000    1.000000    
      2 O     c    0.111005 *  0.348537 *  0.115913 *  -2.00000    1.000000    
      3 O     c    0.889794 *  0.653088 *  0.879285 *  -2.00000    1.000000    
      4 O     c    0.652667 *  0.382496 *  0.108272 *  -2.00000    1.000000    
      5 O     c    0.348120 *  0.619077 *  0.886942 *  -2.00000    1.000000    
      6 O     c    0.348132 *  0.882556 *  0.386945 *  -2.00000    1.000000    
      7 O     c    0.652608 *  0.119122 *  0.608310 *  -2.00000    1.000000    
      8 O     c    0.152658 *  0.119183 *  0.886956 *  -2.00000    1.000000    
      9 O     c    0.610993 *  0.348506 *  0.379379 *  -2.00000    1.000000    
     10 O     c    0.848081 *  0.882517 *  0.108286 *  -2.00000    1.000000    
     11 O     c    0.152518 *  0.382804 *  0.386928 *  -2.00000    1.000000    
     12 O     c    0.382045 *  0.111442 *  0.649954 *  -2.00000    1.000000    
     13 O     c    0.618633 *  0.890242 *  0.345400 *  -2.00000    1.000000    
     14 O     c    0.882087 *  0.390350 *  0.345363 *  -2.00000    1.000000    
     15 O     c    0.118610 *  0.611401 *  0.649361 *  -2.00000    1.000000    
     16 O     c    0.118747 *  0.890455 *  0.149700 *  -2.00000    1.000000    
     17 O     c    0.882054 *  0.111359 *  0.845411 *  -2.00000    1.000000    
     18 O     c    0.848189 *  0.619152 *  0.608135 *  -2.00000    1.000000    
     19 O     c    0.618705 *  0.611393 *  0.845288 *  -2.00000    1.000000    
     20 O     c    0.389679 *  0.653132 *  0.615853 *  -2.00000    1.000000    
     21 O     c    0.889586 *  0.848645 *  0.379284 *  -2.00000    1.000000    
     22 O     c    0.848130 *  0.382495 *  0.887046 *  -2.00000    1.000000    
     23 O     c    0.152700 *  0.619177 *  0.107806 *  -2.00000    1.000000    
     24 O     c    0.652623 *  0.619119 *  0.387077 *  -2.00000    1.000000    
     25 O     c    0.347994 *  0.382622 *  0.608081 *  -2.00000    1.000000    
     26 O     c    0.348083 *  0.119198 *  0.108271 *  -2.00000    1.000000    
     27 O     c    0.652697 *  0.882474 *  0.887037 *  -2.00000    1.000000    
     28 O     c    0.881953 *  0.611456 *  0.149817 *  -2.00000    1.000000    
     29 O     c    0.110971 *  0.153099 *  0.615936 *  -2.00000    1.000000    
     30 O     c    0.118707 *  0.390269 *  0.845311 *  -2.00000    1.000000    
     31 O     c    0.618710 *  0.111453 *  0.149984 *  -2.00000    1.000000    
     32 O     c    0.618660 *  0.390197 *  0.649953 *  -2.00000    1.000000    
     33 O     c    0.382108 *  0.611518 *  0.345195 *  -2.00000    1.000000    
     34 O     c    0.118677 *  0.111502 *  0.345432 *  -2.00000    1.000000    
     35 O     c    0.882095 *  0.890191 *  0.649836 *  -2.00000    1.000000    
     36 O     c    0.610978 *  0.153066 *  0.879395 *  -2.00000    1.000000    
     37 O     c    0.389941 *  0.848709 *  0.115775 *  -2.00000    1.000000    
     38 O     c    0.382040 *  0.890156 *  0.845270 *  -2.00000    1.000000    
     39 O     c    0.382069 *  0.390208 *  0.149953 *  -2.00000    1.000000    
     40 O     c    0.152634 *  0.882446 *  0.608189 *  -2.00000    1.000000    
     41 O     c    0.889743 *  0.348525 *  0.615997 *  -2.00000    1.000000    
     42 O     c    0.389797 *  0.348503 *  0.879275 *  -2.00000    1.000000    
     43 O     c    0.610917 *  0.653060 *  0.115931 *  -2.00000    1.000000    
     44 O     c    0.889786 *  0.153131 *  0.116006 *  -2.00000    1.000000    
     45 O     c    0.110980 *  0.848516 *  0.879257 *  -2.00000    1.000000    
     46 O     c    0.610973 *  0.848519 *  0.615985 *  -2.00000    1.000000    
     47 O     c    0.389714 *  0.153145 *  0.379383 *  -2.00000    1.000000    
     48 O     c    0.848115 *  0.119202 *  0.387113 *  -2.00000    1.000000    
     49 Y     c    0.967109 *  0.500864 *  0.747590 *   3.00000    1.000000    
     50 Y     c    0.033643 *  0.500955 *  0.247350 *   3.00000    1.000000    
     51 Y     c    0.467082 *  0.000913 *  0.247666 *   3.00000    1.000000    
     52 Y     c    0.533675 *  0.000794 *  0.747671 *   3.00000    1.000000    
     53 Y     c    0.033663 *  0.000793 *  0.747600 *   3.00000    1.000000    
     54 Y     c    0.967102 *  0.000823 *  0.247678 *   3.00000    1.000000    
     55 Y     c    0.250345 *  0.250882 *  0.747556 *   3.00000    1.000000    
     56 Y     c    0.750367 *  0.250792 *  0.747699 *   3.00000    1.000000    
     57 Y     c    0.467023 *  0.500831 *  0.747549 *   3.00000    1.000000    
     58 Y     c    0.750298 *  0.750830 *  0.247628 *   3.00000    1.000000    
     59 Y     c    0.750419 *  0.250843 *  0.247691 *   3.00000    1.000000    
     60 Y     c    0.250278 *  0.750733 *  0.747594 *   3.00000    1.000000    
     61 Y     c    0.750446 *  0.750812 *  0.747589 *   3.00000    1.000000    
     62 Y     c    0.250604 *  0.751011 *  0.247142 *   3.00000    1.000000    
     63 Y     c    0.533723 *  0.500791 *  0.247655 *   3.00000    1.000000    
     64 Y     c    0.250438 *  0.467440 *  0.997586 *   3.00000    1.000000    
     65 Y     c    0.750370 *  0.034118 *  0.997708 *   3.00000    1.000000    
     66 Y     c    0.750350 *  0.534112 *  0.997595 *   3.00000    1.000000    
     67 Y     c    0.250367 *  0.034079 *  0.497652 *   3.00000    1.000000    
     68 Y     c    0.750341 *  0.967550 *  0.497663 *   3.00000    1.000000    
     69 Y     c    0.750362 *  0.467494 *  0.497682 *   3.00000    1.000000    
     70 Y     c    0.250350 *  0.534404 *  0.497247 *   3.00000    1.000000    
     71 Y     c    0.000387 *  0.250795 *  0.964328 *   3.00000    1.000000    
     72 Y     c    0.000343 *  0.750900 *  0.030938 *   3.00000    1.000000    
     73 Y     c    0.000403 *  0.750877 *  0.530551 *   3.00000    1.000000    
     74 Y     c    0.000390 *  0.250917 *  0.464346 *   3.00000    1.000000    
     75 Y     c    0.500382 *  0.250818 *  0.030978 *   3.00000    1.000000    
     76 Y     c    0.500414 *  0.750792 *  0.964232 *   3.00000    1.000000    
     77 Y     c    0.500365 *  0.750863 *  0.464319 *   3.00000    1.000000    
     78 Y     c    0.500340 *  0.250830 *  0.530994 *   3.00000    1.000000    
     79 Y     c    0.250431 *  0.967610 *  0.997497 *   3.00000    1.000000    
     80 Y     c    0.250328 *  0.250862 *  0.247686 *   3.00000    1.000000    
--------------------------------------------------------------------------------



********************************************************************************
*  General input information                                                   *
********************************************************************************

  Species output for all configurations : 

--------------------------------------------------------------------------------
  Species    Type    Atomic    Atomic    Charge       Radii (Angs)     Library
                     Number     Mass       (e)     Cova   Ionic  VDW   Symbol
--------------------------------------------------------------------------------
    O        Core        8      16.00  -2.000000   0.730  0.000  1.360          
    Y        Core       39      88.91   3.000000   1.780  0.000  2.660          
--------------------------------------------------------------------------------


  Lattice summation method               =    Ewald          (3-D)
                                         =    Parry          (2-D)
                                         =    Saunders et al (1-D)
  Accuracy factor for lattice sums       =   12.000


  Time limit =     300.00 seconds

  Maximum range for interatomic potentials =    100000.000000 Angstroms

  C6 terms to be calculated in real/reciprocal space by one-centre decomposition

  General interatomic potentials :

--------------------------------------------------------------------------------
Atom  Types   Potential         A         B         C         D     Cutoffs(Ang)
  1     2                                                            Min    Max 
--------------------------------------------------------------------------------
O    c O    c Buckingham    0.139E+04 0.363      175.      0.00     1.200 12.000
O    c Y    c Buckingham    0.230E+05 0.242      0.00      0.00     1.200 12.000
--------------------------------------------------------------------------------

********************************************************************************
*  Output for configuration   1                                                *
********************************************************************************


  Components of energy : 

--------------------------------------------------------------------------------
  Interatomic potentials     =         276.12226057 eV
  Monopole - monopole (real) =       -1527.24974440 eV
  Monopole - monopole (recip)=        -898.56106722 eV
  Monopole - monopole (total)=       -2425.81081162 eV
  Dispersion (real+recip)    =         -41.87894841 eV
--------------------------------------------------------------------------------
  Total lattice energy       =       -2191.56749946 eV
--------------------------------------------------------------------------------
  Total lattice energy       =         -211452.7625 kJ/(mole unit cells)
--------------------------------------------------------------------------------


  Number of variables =      243

  Maximum number of calculations  =          1500
  Maximum Hessian update interval =            10
  Maximum step size               =   1.000000000
  Maximum parameter tolerance     =   0.000010000
  Maximum function  tolerance     =   0.000010000
  Maximum gradient  tolerance     =   0.001000000
  Maximum gradient  component     =   0.010000000

  Symmetry not applied to optimisation

  Cell parameters to be optimised using strains

  Newton-Raphson optimiser to be used

  BFGS hessian update to be used

  Start of bulk optimisation :

  Cycle:      0 Energy:     -2191.567499  Gnorm:      0.001227  CPU:    0.141
  ** Hessian calculated **
  Cycle:      1 Energy:     -2191.569538  Gnorm:      0.000138  CPU:    0.297


  **** Optimisation achieved ****


  Final energy =   -2191.56953840 eV
  Final Gnorm  =       0.00000548

  Components of energy : 

--------------------------------------------------------------------------------
  Interatomic potentials     =         276.12252636 eV
  Monopole - monopole (real) =       -1527.25629383 eV
  Monopole - monopole (recip)=        -898.55684621 eV
  Monopole - monopole (total)=       -2425.81314004 eV
  Dispersion (real+recip)    =         -41.87892472 eV
--------------------------------------------------------------------------------
  Total lattice energy       =       -2191.56953840 eV
--------------------------------------------------------------------------------
  Total lattice energy       =         -211452.9592 kJ/(mole unit cells)
--------------------------------------------------------------------------------

  Final fractional coordinates of atoms :

--------------------------------------------------------------------------------
   No.  Atomic        x           y          z          Radius
        Label       (Frac)      (Frac)     (Frac)       (Angs) 
--------------------------------------------------------------------------------
     1  O     c     0.111000    0.654000    0.378000    0.000000
     2  O     c     0.111000    0.349444    0.114628    0.000000
     3  O     c     0.889795    0.654000    0.878000    0.000000
     4  O     c     0.652675    0.383408    0.106917    0.000000
     5  O     c     0.348120    0.620036    0.885711    0.000000
     6  O     c     0.348120    0.883408    0.385711    0.000000
     7  O     c     0.652675    0.120036    0.606917    0.000000
     8  O     c     0.152675    0.120036    0.885711    0.000000
     9  O     c     0.611000    0.349444    0.378000    0.000000
    10  O     c     0.848120    0.883408    0.106917    0.000000
    11  O     c     0.152675    0.383408    0.385711    0.000000
    12  O     c     0.382083    0.112325    0.648592    0.000000
    13  O     c     0.618711    0.891119    0.344036    0.000000
    14  O     c     0.882083    0.391119    0.344036    0.000000
    15  O     c     0.118711    0.612325    0.648592    0.000000
    16  O     c     0.118711    0.891119    0.148592    0.000000
    17  O     c     0.882083    0.112325    0.844036    0.000000
    18  O     c     0.848120    0.620036    0.606917    0.000000
    19  O     c     0.618711    0.612325    0.844036    0.000000
    20  O     c     0.389795    0.654000    0.614628    0.000000
    21  O     c     0.889795    0.849444    0.378000    0.000000
    22  O     c     0.848120    0.383408    0.885711    0.000000
    23  O     c     0.152675    0.620036    0.106917    0.000000
    24  O     c     0.652675    0.620036    0.385711    0.000000
    25  O     c     0.348120    0.383408    0.606917    0.000000
    26  O     c     0.348120    0.120036    0.106917    0.000000
    27  O     c     0.652675    0.883408    0.885711    0.000000
    28  O     c     0.882083    0.612325    0.148592    0.000000
    29  O     c     0.111000    0.154000    0.614628    0.000000
    30  O     c     0.118711    0.391119    0.844036    0.000000
    31  O     c     0.618711    0.112325    0.148592    0.000000
    32  O     c     0.618711    0.391119    0.648592    0.000000
    33  O     c     0.382083    0.612325    0.344036    0.000000
    34  O     c     0.118711    0.112325    0.344036    0.000000
    35  O     c     0.882083    0.891119    0.648592    0.000000
    36  O     c     0.611000    0.154000    0.878000    0.000000
    37  O     c     0.389795    0.849444    0.114628    0.000000
    38  O     c     0.382083    0.891119    0.844036    0.000000
    39  O     c     0.382083    0.391119    0.148592    0.000000
    40  O     c     0.152675    0.883408    0.606917    0.000000
    41  O     c     0.889795    0.349444    0.614628    0.000000
    42  O     c     0.389795    0.349444    0.878000    0.000000
    43  O     c     0.611000    0.654000    0.114628    0.000000
    44  O     c     0.889795    0.154000    0.114628    0.000000
    45  O     c     0.111000    0.849444    0.878000    0.000000
    46  O     c     0.611000    0.849444    0.614628    0.000000
    47  O     c     0.389795    0.154000    0.378000    0.000000
    48  O     c     0.848120    0.120036    0.385711    0.000000
    49  Y     c     0.967090    0.501722    0.746314    0.000000
    50  Y     c     0.033704    0.501722    0.246314    0.000000
    51  Y     c     0.467090    0.001722    0.246314    0.000000
    52  Y     c     0.533704    0.001722    0.746314    0.000000
    53  Y     c     0.033704    0.001722    0.746314    0.000000
    54  Y     c     0.967090    0.001722    0.246314    0.000000
    55  Y     c     0.250397    0.251722    0.746314    0.000000
    56  Y     c     0.750397    0.251722    0.746314    0.000000
    57  Y     c     0.467090    0.501722    0.746314    0.000000
    58  Y     c     0.750397    0.751722    0.246314    0.000000
    59  Y     c     0.750397    0.251722    0.246314    0.000000
    60  Y     c     0.250397    0.751722    0.746314    0.000000
    61  Y     c     0.750397    0.751722    0.746314    0.000000
    62  Y     c     0.250397    0.751722    0.246314    0.000000
    63  Y     c     0.533704    0.501722    0.246314    0.000000
    64  Y     c     0.250397    0.468415    0.996314    0.000000
    65  Y     c     0.750397    0.035029    0.996314    0.000000
    66  Y     c     0.750397    0.535029    0.996314    0.000000
    67  Y     c     0.250397    0.035029    0.496314    0.000000
    68  Y     c     0.750397    0.968415    0.496314    0.000000
    69  Y     c     0.750397    0.468415    0.496314    0.000000
    70  Y     c     0.250398    0.535029    0.496314    0.000000
    71  Y     c     0.000397    0.251722    0.963007    0.000000
    72  Y     c     0.000397    0.751722    0.029621    0.000000
    73  Y     c     0.000397    0.751722    0.529621    0.000000
    74  Y     c     0.000397    0.251722    0.463007    0.000000
    75  Y     c     0.500397    0.251722    0.029621    0.000000
    76  Y     c     0.500397    0.751722    0.963007    0.000000
    77  Y     c     0.500397    0.751722    0.463007    0.000000
    78  Y     c     0.500397    0.251722    0.529621    0.000000
    79  Y     c     0.250397    0.968415    0.996314    0.000000
    80  Y     c     0.250397    0.251722    0.246314    0.000000
--------------------------------------------------------------------------------

  Final Cartesian lattice vectors (Angstroms) :

       11.082588   -0.000010    0.000609
        0.000010   11.082588    0.000078
       -0.000608   -0.000079   11.082588


  Final cell parameters and derivatives :

--------------------------------------------------------------------------------
       a           11.082588 Angstrom     dE/de1(xx)     0.000013 eV/strain
       b           11.082588 Angstrom     dE/de2(yy)     0.000030 eV/strain
       c           11.082588 Angstrom     dE/de3(zz)    -0.000009 eV/strain
       alpha       90.000000 Degrees      dE/de4(yz)    -0.000022 eV/strain
       beta        90.000000 Degrees      dE/de5(xz)     0.000103 eV/strain
       gamma       90.000000 Degrees      dE/de6(xy)    -0.000081 eV/strain
--------------------------------------------------------------------------------

  Primitive cell volume =          1361.205130 Angs**3

  Density of cell =      4.407728 g/cm**3

  Non-primitive cell volume =          1361.205130 Angs**3


  Final internal derivatives :

--------------------------------------------------------------------------------
   No.  Atomic          a             b             c           Radius
        Label          (eV)          (eV)          (eV)        (eV/Angs)
--------------------------------------------------------------------------------
      1 O     c       0.000000      0.000000      0.000000      0.000000
      2 O     c       0.000001      0.000003     -0.000003      0.000000
      3 O     c       0.000000     -0.000000     -0.000013      0.000000
      4 O     c      -0.000001      0.000004     -0.000002      0.000000
      5 O     c       0.000001      0.000009      0.000001      0.000000
      6 O     c      -0.000021     -0.000017     -0.000029      0.000000
      7 O     c       0.000002      0.000004     -0.000006      0.000000
      8 O     c      -0.000001      0.000004     -0.000007      0.000000
      9 O     c       0.000006      0.000004     -0.000006      0.000000
     10 O     c      -0.000006      0.000012     -0.000014      0.000000
     11 O     c      -0.000031     -0.000025     -0.000023      0.000000
     12 O     c       0.000003      0.000001     -0.000004      0.000000
     13 O     c      -0.000008      0.000002     -0.000006      0.000000
     14 O     c       0.000016      0.000016      0.000010      0.000000
     15 O     c      -0.000040      0.000014      0.000028      0.000000
     16 O     c       0.000019      0.000004      0.000007      0.000000
     17 O     c      -0.000001      0.000004     -0.000007      0.000000
     18 O     c       0.000030      0.000002     -0.000030      0.000000
     19 O     c       0.000002      0.000003     -0.000007      0.000000
     20 O     c       0.000028      0.000015      0.000011      0.000000
     21 O     c      -0.000018      0.000010      0.000024      0.000000
     22 O     c      -0.000001      0.000002     -0.000008      0.000000
     23 O     c       0.000043      0.000013      0.000022      0.000000
     24 O     c       0.000004      0.000001     -0.000002      0.000000
     25 O     c      -0.000018      0.000023     -0.000021      0.000000
     26 O     c      -0.000000     -0.000002     -0.000002      0.000000
     27 O     c       0.000000      0.000002     -0.000008      0.000000
     28 O     c      -0.000030     -0.000019     -0.000021      0.000000
     29 O     c      -0.000003     -0.000000     -0.000007      0.000000
     30 O     c      -0.000005      0.000005      0.000000      0.000000
     31 O     c      -0.000001      0.000003     -0.000004      0.000000
     32 O     c       0.000007      0.000001     -0.000006      0.000000
     33 O     c      -0.000008      0.000039     -0.000062      0.000000
     34 O     c       0.000002      0.000002     -0.000005      0.000000
     35 O     c       0.000005     -0.000007     -0.000012      0.000000
     36 O     c       0.000001      0.000003     -0.000006      0.000000
     37 O     c      -0.000005     -0.000002      0.000005      0.000000
     38 O     c      -0.000002     -0.000000     -0.000002      0.000000
     39 O     c       0.000000      0.000005     -0.000005      0.000000
     40 O     c      -0.000001      0.000010     -0.000008      0.000000
     41 O     c       0.000002      0.000013     -0.000015      0.000000
     42 O     c       0.000005     -0.000001     -0.000003      0.000000
     43 O     c      -0.000011      0.000006     -0.000002      0.000000
     44 O     c      -0.000000      0.000005     -0.000005      0.000000
     45 O     c       0.000005      0.000002     -0.000006      0.000000
     46 O     c       0.000003      0.000002     -0.000006      0.000000
     47 O     c       0.000001     -0.000001     -0.000009      0.000000
     48 O     c      -0.000002      0.000011      0.000000      0.000000
     49 Y     c       0.000007     -0.000004      0.000021      0.000000
     50 Y     c      -0.000022     -0.000041     -0.000018      0.000000
     51 Y     c       0.000003      0.000005     -0.000002      0.000000
     52 Y     c      -0.000001      0.000002     -0.000004      0.000000
     53 Y     c       0.000000      0.000005     -0.000001      0.000000
     54 Y     c       0.000004     -0.000030     -0.000008      0.000000
     55 Y     c       0.000003      0.000015     -0.000015      0.000000
     56 Y     c      -0.000001      0.000001     -0.000003      0.000000
     57 Y     c      -0.000014      0.000000     -0.000011      0.000000
     58 Y     c       0.000036      0.000005     -0.000014      0.000000
     59 Y     c      -0.000000      0.000000     -0.000008      0.000000
     60 Y     c      -0.000005     -0.000012     -0.000017      0.000000
     61 Y     c      -0.000002      0.000004      0.000001      0.000000
     62 Y     c      -0.000476     -0.000323      0.000451      0.000000
     63 Y     c      -0.000000      0.000002     -0.000006      0.000000
     64 Y     c      -0.000001     -0.000005     -0.000011      0.000000
     65 Y     c       0.000002      0.000000     -0.000003      0.000000
     66 Y     c       0.000002      0.000001     -0.000007      0.000000
     67 Y     c      -0.000001      0.000011      0.000000      0.000000
     68 Y     c      -0.000005      0.000010     -0.000002      0.000000
     69 Y     c      -0.000029     -0.000010     -0.000005      0.000000
     70 Y     c       0.000672     -0.000603      0.000590      0.000000
     71 Y     c       0.000001      0.000001     -0.000004      0.000000
     72 Y     c      -0.000003     -0.000006      0.000039      0.000000
     73 Y     c       0.000066     -0.000084     -0.000091      0.000000
     74 Y     c      -0.000000     -0.000018     -0.000003      0.000000
     75 Y     c      -0.000000      0.000003     -0.000008      0.000000
     76 Y     c       0.000005      0.000001     -0.000011      0.000000
     77 Y     c      -0.000002     -0.000000      0.000002      0.000000
     78 Y     c      -0.000008      0.000009      0.000001      0.000000
     79 Y     c       0.000003      0.000010     -0.000015      0.000000
     80 Y     c       0.000002      0.000004     -0.000005      0.000000
--------------------------------------------------------------------------------
  Maximum abs         0.000672      0.000603      0.000590      0.000000
--------------------------------------------------------------------------------


  Time to end of optimisation =       0.4375 seconds


  Peak dynamic memory used =       1.90 MB 


  Timing analysis for GULP :

--------------------------------------------------------------------------------
  Task / Subroutine                                          Time (Seconds)
--------------------------------------------------------------------------------
  Calculation of reciprocal space energy and derivatives          0.0313
  Calculation of real space energy and derivatives                0.3750
  Calculation of matrix inversion                                 0.0156
--------------------------------------------------------------------------------
  Total CPU time                                                  0.4375
--------------------------------------------------------------------------------


  Dump file written as temp.res                                                


  Job Finished at 14:36.37 14th June       2021                               

