********************************************************************************
*                       GENERAL UTILITY LATTICE PROGRAM                        *
*                                 Julian Gale                                  *
*                      Nanochemistry Research Institute                        *
*                           Department of Chemistry                            *
*                    Curtin University, Western Australia                      *
********************************************************************************
* Version = 4.3.5 * Last modified = 16th December 2015                         *
********************************************************************************
*  optimise     - perform optimisation run                                     *
*  conp         - constant pressure calculation                                *
********************************************************************************
* ASE calculation                                                              *
********************************************************************************


  Job Started  at 14:36.48 14th June       2021                               

  Number of CPUs =     1


  Total number of configurations input =   1

********************************************************************************
*  Input for Configuration =   1                                               *
********************************************************************************

  Formula = O56Ti16Y16                                                  

  Number of irreducible atoms/shells =      88


  Total number atoms/shells =      88

  Dimensionality = 3               :  Bulk   



  Cartesian lattice vectors (Angstroms) :

       10.321704    0.000000    0.000000
        0.000000   10.322962    0.000000
        0.000000   -0.002939   10.322962

  Cell parameters (Angstroms/Degrees):

  a =      10.3217    alpha =  90.0163
  b =      10.3230    beta  =  90.0000
  c =      10.3230    gamma =  90.0000

  Initial cell volume =        1099.917318 Angs**3

  Temperature of configuration =  0.000     K 

  Pressure of configuration =         0.000 GPa 

  Fractional coordinates of asymmetric unit :

--------------------------------------------------------------------------------
   No.  Atomic       x           y          z         Charge      Occupancy
        Label      (Frac)      (Frac)     (Frac)        (e)         (Frac)  
--------------------------------------------------------------------------------
      1 O     c    0.171200    0.875000    0.375000    -2.00000    1.000000    
      2 O     c    0.369695 *  0.875120 *  0.570666 *  -2.00000    1.000000    
      3 O     c    0.619944 *  0.125037 *  0.428748 *  -2.00000    1.000000    
      4 O     c    0.370372 *  0.374984 *  0.678882 *  -2.00000    1.000000    
      5 O     c    0.619944 *  0.624962 *  0.321252 *  -2.00000    1.000000    
      6 O     c    0.870323 *  0.375137 *  0.178881 *  -2.00000    1.000000    
      7 O     c    0.120335 *  0.624909 *  0.821253 *  -2.00000    1.000000    
      8 O     c    0.870115 *  0.875112 *  0.071077 *  -2.00000    1.000000    
      9 O     c    0.120335 *  0.125091 *  0.928747 *  -2.00000    1.000000    
     10 O     c    0.870115 *  0.178923 *  0.374888 *  -2.00000    1.000000    
     11 O     c    0.870115 *  0.571077 *  0.375112 *  -2.00000    1.000000    
     12 O     c    0.369695 *  0.679334 *  0.374880 *  -2.00000    1.000000    
     13 O     c    0.620333 *  0.321052 *  0.625001 *  -2.00000    1.000000    
     14 O     c    0.370372 *  0.178882 *  0.874984 *  -2.00000    1.000000    
     15 O     c    0.619944 *  0.821252 *  0.124962 *  -2.00000    1.000000    
     16 O     c    0.870323 *  0.071119 *  0.874863 *  -2.00000    1.000000    
     17 O     c    0.120268 *  0.929179 *  0.124673 *  -2.00000    1.000000    
     18 O     c    0.566453 *  0.375000 *  0.875000 *  -2.00000    1.000000    
     19 O     c    0.424182 *  0.625036 *  0.125036 *  -2.00000    1.000000    
     20 O     c    0.120335 *  0.428747 *  0.625091 *  -2.00000    1.000000    
     21 O     c    0.674111 *  0.375000 *  0.375000 *  -2.00000    1.000000    
     22 O     c    0.120268 *  0.820821 *  0.625327 *  -2.00000    1.000000    
     23 O     c    0.620333 *  0.428948 *  0.124999 *  -2.00000    1.000000    
     24 O     c    0.120335 *  0.321253 *  0.124909 *  -2.00000    1.000000    
     25 O     c    0.870323 *  0.678881 *  0.875137 *  -2.00000    1.000000    
     26 O     c    0.370372 *  0.375016 *  0.071118 *  -2.00000    1.000000    
     27 O     c    0.620333 *  0.624999 *  0.928948 *  -2.00000    1.000000    
     28 O     c    0.870115 *  0.874888 *  0.678923 *  -2.00000    1.000000    
     29 O     c    0.120268 *  0.125327 *  0.320821 *  -2.00000    1.000000    
     30 O     c    0.674111 *  0.875000 *  0.875000 *  -2.00000    1.000000    
     31 O     c    0.316473 *  0.125008 *  0.124992 *  -2.00000    1.000000    
     32 O     c    0.370372 *  0.571118 *  0.875016 *  -2.00000    1.000000    
     33 O     c    0.066271 *  0.375000 *  0.375000 *  -2.00000    1.000000    
     34 O     c    0.620333 *  0.125000 *  0.821052 *  -2.00000    1.000000    
     35 O     c    0.369695 *  0.874880 *  0.179334 *  -2.00000    1.000000    
     36 O     c    0.120268 *  0.624673 *  0.429179 *  -2.00000    1.000000    
     37 O     c    0.870323 *  0.374863 *  0.571119 *  -2.00000    1.000000    
     38 O     c    0.816188 *  0.625179 *  0.125179 *  -2.00000    1.000000    
     39 O     c    0.174406 *  0.375000 *  0.875000 *  -2.00000    1.000000    
     40 O     c    0.424182 *  0.124964 *  0.624964 *  -2.00000    1.000000    
     41 O     c    0.566231 *  0.875000 *  0.375000 *  -2.00000    1.000000    
     42 O     c    0.924184 *  0.624868 *  0.625132 *  -2.00000    1.000000    
     43 O     c    0.316473 *  0.624992 *  0.625008 *  -2.00000    1.000000    
     44 O     c    0.619944 *  0.928748 *  0.625038 *  -2.00000    1.000000    
     45 O     c    0.816188 *  0.124821 *  0.624821 *  -2.00000    1.000000    
     46 O     c    0.369695 *  0.070666 *  0.375120 *  -2.00000    1.000000    
     47 O     c    0.370198 *  0.375000 *  0.375000 *  -2.00000    1.000000    
     48 O     c    0.620261 *  0.624900 *  0.625100 *  -2.00000    1.000000    
     49 O     c    0.620261 *  0.125100 *  0.124900 *  -2.00000    1.000000    
     50 O     c    0.869632 *  0.875000 *  0.375000 *  -2.00000    1.000000    
     51 O     c    0.370198 *  0.875000 *  0.875000 *  -2.00000    1.000000    
     52 O     c    0.870397 *  0.375000 *  0.875000 *  -2.00000    1.000000    
     53 O     c    0.120190 *  0.625145 *  0.125145 *  -2.00000    1.000000    
     54 O     c    0.924184 *  0.125132 *  0.124868 *  -2.00000    1.000000    
     55 O     c    0.066271 *  0.875000 *  0.875000 *  -2.00000    1.000000    
     56 O     c    0.120190 *  0.124855 *  0.624855 *  -2.00000    1.000000    
     57 Ti    c    0.245379 *  0.250044 *  0.999956 *   4.00000    1.000000    
     58 Ti    c    0.995246 *  0.749937 *  0.750129 *   4.00000    1.000000    
     59 Ti    c    0.495073 *  0.999918 *  0.499918 *   4.00000    1.000000    
     60 Ti    c    0.745177 *  0.999947 *  0.749987 *   4.00000    1.000000    
     61 Ti    c    0.244671 *  0.000013 *  0.249987 *   4.00000    1.000000    
     62 Ti    c    0.745177 *  0.750053 *  0.000013 *   4.00000    1.000000    
     63 Ti    c    0.245379 *  0.499956 *  0.750044 *   4.00000    1.000000    
     64 Ti    c    0.495333 *  0.249978 *  0.749978 *   4.00000    1.000000    
     65 Ti    c    0.495073 *  0.750082 *  0.250082 *   4.00000    1.000000    
     66 Ti    c    0.745177 *  0.500013 *  0.250053 *   4.00000    1.000000    
     67 Ti    c    0.995246 *  0.250129 *  0.249937 *   4.00000    1.000000    
     68 Ti    c    0.244671 *  0.749987 *  0.500013 *   4.00000    1.000000    
     69 Ti    c    0.745177 *  0.249987 *  0.499947 *   4.00000    1.000000    
     70 Ti    c    0.995246 *  0.499871 *  0.500063 *   4.00000    1.000000    
     71 Ti    c    0.495333 *  0.500022 *  0.000022 *   4.00000    1.000000    
     72 Ti    c    0.995246 *  0.000063 *  0.999870 *   4.00000    1.000000    
     73 Y     c    0.245211 *  0.750001 *  0.000048 *   3.00000    1.000000    
     74 Y     c    0.745328 *  0.250043 *  0.999957 *   3.00000    1.000000    
     75 Y     c    0.745169 *  0.000121 *  0.249879 *   3.00000    1.000000    
     76 Y     c    0.245211 *  0.999999 *  0.749951 *   3.00000    1.000000    
     77 Y     c    0.994916 *  0.750073 *  0.250073 *   3.00000    1.000000    
     78 Y     c    0.495151 *  0.000049 *  0.000044 *   3.00000    1.000000    
     79 Y     c    0.245211 *  0.249951 *  0.499999 *   3.00000    1.000000    
     80 Y     c    0.745169 *  0.749879 *  0.500121 *   3.00000    1.000000    
     81 Y     c    0.745328 *  0.499957 *  0.750043 *   3.00000    1.000000    
     82 Y     c    0.245211 *  0.500049 *  0.250001 *   3.00000    1.000000    
     83 Y     c    0.995327 *  0.500055 *  0.000055 *   3.00000    1.000000    
     84 Y     c    0.495151 *  0.249956 *  0.249951 *   3.00000    1.000000    
     85 Y     c    0.495151 *  0.749951 *  0.749956 *   3.00000    1.000000    
     86 Y     c    0.994916 *  0.999926 *  0.499927 *   3.00000    1.000000    
     87 Y     c    0.495151 *  0.500044 *  0.500049 *   3.00000    1.000000    
     88 Y     c    0.995327 *  0.249945 *  0.749945 *   3.00000    1.000000    
--------------------------------------------------------------------------------



********************************************************************************
*  General input information                                                   *
********************************************************************************

  Species output for all configurations : 

--------------------------------------------------------------------------------
  Species    Type    Atomic    Atomic    Charge       Radii (Angs)     Library
                     Number     Mass       (e)     Cova   Ionic  VDW   Symbol
--------------------------------------------------------------------------------
    O        Core        8      16.00  -2.000000   0.730  0.000  1.360          
    Ti       Core       22      47.88   4.000000   1.470  0.000  2.190          
    Y        Core       39      88.91   3.000000   1.780  0.000  2.660          
--------------------------------------------------------------------------------


  Lattice summation method               =    Ewald          (3-D)
                                         =    Parry          (2-D)
                                         =    Saunders et al (1-D)
  Accuracy factor for lattice sums       =   12.000


  Time limit =     300.00 seconds

  Maximum range for interatomic potentials =    100000.000000 Angstroms

  C6 terms to be calculated in real/reciprocal space by one-centre decomposition

  General interatomic potentials :

--------------------------------------------------------------------------------
Atom  Types   Potential         A         B         C         D     Cutoffs(Ang)
  1     2                                                            Min    Max 
--------------------------------------------------------------------------------
O    c Ti   c Buckingham    0.459E+04 0.261      0.00      0.00     1.200 12.000
O    c O    c Buckingham    0.139E+04 0.363      175.      0.00     1.200 12.000
O    c Y    c Buckingham    0.230E+05 0.242      0.00      0.00     1.200 12.000
--------------------------------------------------------------------------------

********************************************************************************
*  Output for configuration   1                                                *
********************************************************************************


  Components of energy : 

--------------------------------------------------------------------------------
  Interatomic potentials     =         504.07735423 eV
  Monopole - monopole (real) =       -2226.93395862 eV
  Monopole - monopole (recip)=       -1264.06367176 eV
  Monopole - monopole (total)=       -3490.99763038 eV
  Dispersion (real+recip)    =        -106.60358716 eV
--------------------------------------------------------------------------------
  Total lattice energy       =       -3093.52386331 eV
--------------------------------------------------------------------------------
  Total lattice energy       =         -298477.7640 kJ/(mole unit cells)
--------------------------------------------------------------------------------


  Number of variables =      267

  Maximum number of calculations  =          1500
  Maximum Hessian update interval =            10
  Maximum step size               =   1.000000000
  Maximum parameter tolerance     =   0.000010000
  Maximum function  tolerance     =   0.000010000
  Maximum gradient  tolerance     =   0.001000000
  Maximum gradient  component     =   0.010000000

  Symmetry not applied to optimisation

  Cell parameters to be optimised using strains

  Newton-Raphson optimiser to be used

  BFGS hessian update to be used

  Start of bulk optimisation :

  Cycle:      0 Energy:     -3093.523863  Gnorm:      0.003161  CPU:    0.172
  ** Hessian calculated **
  Cycle:      1 Energy:     -3093.529442  Gnorm:      0.000473  CPU:    0.391


  **** Optimisation achieved ****


  Final energy =   -3093.52944486 eV
  Final Gnorm  =       0.00001062

  Components of energy : 

--------------------------------------------------------------------------------
  Interatomic potentials     =         504.09025687 eV
  Monopole - monopole (real) =       -2226.96223016 eV
  Monopole - monopole (recip)=       -1264.05273623 eV
  Monopole - monopole (total)=       -3491.01496640 eV
  Dispersion (real+recip)    =        -106.60473533 eV
--------------------------------------------------------------------------------
  Total lattice energy       =       -3093.52944486 eV
--------------------------------------------------------------------------------
  Total lattice energy       =         -298478.3025 kJ/(mole unit cells)
--------------------------------------------------------------------------------

  Final fractional coordinates of atoms :

--------------------------------------------------------------------------------
   No.  Atomic        x           y          z          Radius
        Label       (Frac)      (Frac)     (Frac)       (Angs) 
--------------------------------------------------------------------------------
     1  O     c     0.171200    0.875000    0.375000    0.000000
     2  O     c     0.367295    0.875000    0.571093    0.000000
     3  O     c     0.617295    0.125000    0.428907    0.000000
     4  O     c     0.367295    0.375000    0.678907    0.000000
     5  O     c     0.617295    0.625000    0.321093    0.000000
     6  O     c     0.867295    0.375000    0.178907    0.000000
     7  O     c     0.117295    0.625000    0.821093    0.000000
     8  O     c     0.867295    0.875000    0.071093    0.000000
     9  O     c     0.117295    0.125000    0.928907    0.000000
    10  O     c     0.867295    0.178907    0.375000    0.000000
    11  O     c     0.867295    0.571093    0.375000    0.000000
    12  O     c     0.367295    0.678907    0.375000    0.000000
    13  O     c     0.617295    0.321093    0.625000    0.000000
    14  O     c     0.367295    0.178907    0.875000    0.000000
    15  O     c     0.617295    0.821093    0.125000    0.000000
    16  O     c     0.867295    0.071093    0.875000    0.000000
    17  O     c     0.117295    0.928907    0.125000    0.000000
    18  O     c     0.563388    0.375000    0.875000    0.000000
    19  O     c     0.421201    0.625000    0.125000    0.000000
    20  O     c     0.117295    0.428907    0.625000    0.000000
    21  O     c     0.671201    0.375000    0.375000    0.000000
    22  O     c     0.117295    0.821093    0.625000    0.000000
    23  O     c     0.617295    0.428907    0.125000    0.000000
    24  O     c     0.117295    0.321093    0.125000    0.000000
    25  O     c     0.867295    0.678907    0.875000    0.000000
    26  O     c     0.367295    0.375000    0.071093    0.000000
    27  O     c     0.617295    0.625000    0.928907    0.000000
    28  O     c     0.867295    0.875000    0.678907    0.000000
    29  O     c     0.117295    0.125000    0.321093    0.000000
    30  O     c     0.671201    0.875000    0.875000    0.000000
    31  O     c     0.313388    0.125000    0.125000    0.000000
    32  O     c     0.367295    0.571093    0.875000    0.000000
    33  O     c     0.063388    0.375000    0.375000    0.000000
    34  O     c     0.617295    0.125000    0.821093    0.000000
    35  O     c     0.367295    0.875000    0.178907    0.000000
    36  O     c     0.117295    0.625000    0.428907    0.000000
    37  O     c     0.867295    0.375000    0.571093    0.000000
    38  O     c     0.813388    0.625000    0.125000    0.000000
    39  O     c     0.171201    0.375000    0.875000    0.000000
    40  O     c     0.421201    0.125000    0.625000    0.000000
    41  O     c     0.563388    0.875000    0.375000    0.000000
    42  O     c     0.921201    0.625000    0.625000    0.000000
    43  O     c     0.313388    0.625000    0.625000    0.000000
    44  O     c     0.617295    0.928907    0.625000    0.000000
    45  O     c     0.813388    0.125000    0.625000    0.000000
    46  O     c     0.367295    0.071093    0.375000    0.000000
    47  O     c     0.367295    0.375000    0.375000    0.000000
    48  O     c     0.617295    0.625000    0.625000    0.000000
    49  O     c     0.617295    0.125000    0.125000    0.000000
    50  O     c     0.867294    0.875000    0.375000    0.000000
    51  O     c     0.367295    0.875000    0.875000    0.000000
    52  O     c     0.867295    0.375000    0.875000    0.000000
    53  O     c     0.117295    0.625000    0.125000    0.000000
    54  O     c     0.921201    0.125000    0.125000    0.000000
    55  O     c     0.063388    0.875000    0.875000    0.000000
    56  O     c     0.117295    0.125000    0.625000    0.000000
    57  Ti    c     0.242295    0.250000    1.000000    0.000000
    58  Ti    c     0.992295    0.750000    0.750000    0.000000
    59  Ti    c     0.492295    1.000000    0.500000    0.000000
    60  Ti    c     0.742295    1.000000    0.750000    0.000000
    61  Ti    c     0.242295    0.000000    0.250000    0.000000
    62  Ti    c     0.742295    0.750000    0.000000    0.000000
    63  Ti    c     0.242295    0.500000    0.750000    0.000000
    64  Ti    c     0.492295    0.250000    0.750000    0.000000
    65  Ti    c     0.492295    0.750000    0.250000    0.000000
    66  Ti    c     0.742295    0.500000    0.250000    0.000000
    67  Ti    c     0.992295    0.250000    0.250000    0.000000
    68  Ti    c     0.242295    0.750000    0.500000    0.000000
    69  Ti    c     0.742295    0.250000    0.500000    0.000000
    70  Ti    c     0.992295    0.500000    0.500000    0.000000
    71  Ti    c     0.492295    0.500000    0.000000    0.000000
    72  Ti    c     0.992295    0.000000    1.000000    0.000000
    73  Y     c     0.242295    0.750000    1.000000    0.000000
    74  Y     c     0.742295    0.250000    1.000000    0.000000
    75  Y     c     0.742295    0.000000    0.250000    0.000000
    76  Y     c     0.242295    0.000000    0.750000    0.000000
    77  Y     c     0.992295    0.750000    0.250000    0.000000
    78  Y     c     0.492295    0.000000    1.000000    0.000000
    79  Y     c     0.242295    0.250000    0.500000    0.000000
    80  Y     c     0.742295    0.750000    0.500000    0.000000
    81  Y     c     0.742295    0.500000    0.750000    0.000000
    82  Y     c     0.242295    0.500000    0.250000    0.000000
    83  Y     c     0.992295    0.500000    0.000000    0.000000
    84  Y     c     0.492295    0.250000    0.250000    0.000000
    85  Y     c     0.492295    0.750000    0.750000    0.000000
    86  Y     c     0.992295    1.000000    0.500000    0.000000
    87  Y     c     0.492295    0.500000    0.500000    0.000000
    88  Y     c     0.992295    0.250000    0.750000    0.000000
--------------------------------------------------------------------------------

  Final Cartesian lattice vectors (Angstroms) :

       10.322628    0.000000    0.000000
        0.000000   10.322630    0.001467
        0.000000   -0.001471   10.322630


  Final cell parameters and derivatives :

--------------------------------------------------------------------------------
       a           10.322628 Angstrom     dE/de1(xx)     0.000083 eV/strain
       b           10.322630 Angstrom     dE/de2(yy)     0.000436 eV/strain
       c           10.322630 Angstrom     dE/de3(zz)     0.000436 eV/strain
       alpha       90.000022 Degrees      dE/de4(yz)    -0.000347 eV/strain
       beta        90.000000 Degrees      dE/de5(xz)     0.000000 eV/strain
       gamma       90.000000 Degrees      dE/de6(xy)     0.000000 eV/strain
--------------------------------------------------------------------------------

  Primitive cell volume =          1099.944966 Angs**3

  Density of cell =      4.656821 g/cm**3

  Non-primitive cell volume =          1099.944966 Angs**3


  Final internal derivatives :

--------------------------------------------------------------------------------
   No.  Atomic          a             b             c           Radius
        Label          (eV)          (eV)          (eV)        (eV/Angs)
--------------------------------------------------------------------------------
      1 O     c       0.000000      0.000000      0.000000      0.000000
      2 O     c      -0.000039      0.000038      0.000218      0.000000
      3 O     c      -0.000005      0.000063     -0.000011      0.000000
      4 O     c      -0.000020      0.000003      0.000008      0.000000
      5 O     c      -0.000005     -0.000063      0.000011      0.000000
      6 O     c      -0.000004      0.000002      0.000001      0.000000
      7 O     c       0.000022      0.000026     -0.000002      0.000000
      8 O     c      -0.000032     -0.000001     -0.000038      0.000000
      9 O     c       0.000022     -0.000026      0.000002      0.000000
     10 O     c      -0.000032      0.000038      0.000001      0.000000
     11 O     c      -0.000032     -0.000038     -0.000001      0.000000
     12 O     c      -0.000039     -0.000218     -0.000038      0.000000
     13 O     c      -0.000038      0.000010      0.000015      0.000000
     14 O     c      -0.000020      0.000008      0.000002      0.000000
     15 O     c      -0.000005      0.000011     -0.000063      0.000000
     16 O     c      -0.000004     -0.000001     -0.000002      0.000000
     17 O     c       0.000331      0.000137      0.000204      0.000000
     18 O     c      -0.000016     -0.000000     -0.000000      0.000000
     19 O     c      -0.000052     -0.000010     -0.000010      0.000000
     20 O     c       0.000022      0.000002     -0.000026      0.000000
     21 O     c      -0.000009      0.000000     -0.000000      0.000000
     22 O     c       0.000331     -0.000137     -0.000204      0.000000
     23 O     c      -0.000037     -0.000010     -0.000015      0.000000
     24 O     c       0.000022     -0.000002      0.000026      0.000000
     25 O     c      -0.000004      0.000001      0.000002      0.000000
     26 O     c      -0.000020     -0.000002     -0.000008      0.000000
     27 O     c      -0.000038     -0.000015     -0.000010      0.000000
     28 O     c      -0.000032      0.000001      0.000038      0.000000
     29 O     c       0.000331     -0.000204     -0.000137      0.000000
     30 O     c      -0.000009     -0.000000     -0.000000      0.000000
     31 O     c      -0.000094     -0.000004      0.000004      0.000000
     32 O     c      -0.000020     -0.000008     -0.000003      0.000000
     33 O     c       0.000018     -0.000000     -0.000000      0.000000
     34 O     c      -0.000038      0.000015      0.000010      0.000000
     35 O     c      -0.000039     -0.000038     -0.000218      0.000000
     36 O     c       0.000331      0.000204      0.000137      0.000000
     37 O     c      -0.000004     -0.000002     -0.000001      0.000000
     38 O     c      -0.000208     -0.000112     -0.000112      0.000000
     39 O     c      -0.000006      0.000000     -0.000000      0.000000
     40 O     c      -0.000052      0.000010      0.000010      0.000000
     41 O     c      -0.000017     -0.000000      0.000000      0.000000
     42 O     c       0.000022     -0.000021      0.000021      0.000000
     43 O     c      -0.000094      0.000004     -0.000004      0.000000
     44 O     c      -0.000005     -0.000011      0.000063      0.000000
     45 O     c      -0.000209      0.000112      0.000112      0.000000
     46 O     c      -0.000039      0.000218      0.000038      0.000000
     47 O     c      -0.000022      0.000000      0.000000      0.000000
     48 O     c      -0.000014     -0.000032      0.000032      0.000000
     49 O     c      -0.000014      0.000032     -0.000032      0.000000
     50 O     c      -0.000373     -0.000000      0.000000      0.000000
     51 O     c      -0.000022     -0.000000      0.000000      0.000000
     52 O     c      -0.000015     -0.000000      0.000000      0.000000
     53 O     c      -0.000055      0.000055      0.000055      0.000000
     54 O     c       0.000022      0.000021     -0.000021      0.000000
     55 O     c       0.000018     -0.000000     -0.000000      0.000000
     56 O     c      -0.000055     -0.000055     -0.000055      0.000000
     57 Ti    c      -0.000033     -0.000003      0.000003      0.000000
     58 Ti    c      -0.000117     -0.000024      0.000021      0.000000
     59 Ti    c      -0.000045     -0.000090     -0.000090      0.000000
     60 Ti    c       0.000023     -0.000036     -0.000017      0.000000
     61 Ti    c       0.000963      0.000971     -0.000971      0.000000
     62 Ti    c       0.000023      0.000036      0.000017      0.000000
     63 Ti    c      -0.000033      0.000003     -0.000003      0.000000
     64 Ti    c       0.000034     -0.000005     -0.000005      0.000000
     65 Ti    c      -0.000045      0.000090      0.000090      0.000000
     66 Ti    c       0.000023      0.000017      0.000036      0.000000
     67 Ti    c      -0.000117      0.000021     -0.000024      0.000000
     68 Ti    c       0.000963     -0.000971      0.000971      0.000000
     69 Ti    c       0.000023     -0.000017     -0.000036      0.000000
     70 Ti    c      -0.000117     -0.000021      0.000024      0.000000
     71 Ti    c       0.000034      0.000005      0.000005      0.000000
     72 Ti    c      -0.000117      0.000024     -0.000021      0.000000
     73 Y     c      -0.000000     -0.000032     -0.000101      0.000000
     74 Y     c      -0.000005     -0.000000      0.000000      0.000000
     75 Y     c       0.000125     -0.000020      0.000020      0.000000
     76 Y     c      -0.000000      0.000032      0.000101      0.000000
     77 Y     c       0.000206      0.000295      0.000295      0.000000
     78 Y     c       0.000091      0.000002     -0.000046      0.000000
     79 Y     c      -0.000000      0.000101      0.000032      0.000000
     80 Y     c       0.000125      0.000020     -0.000020      0.000000
     81 Y     c      -0.000005      0.000000     -0.000000      0.000000
     82 Y     c      -0.000000     -0.000101     -0.000032      0.000000
     83 Y     c       0.000033     -0.000015     -0.000015      0.000000
     84 Y     c       0.000091      0.000046     -0.000002      0.000000
     85 Y     c       0.000091     -0.000002      0.000047      0.000000
     86 Y     c       0.000207     -0.000295     -0.000295      0.000000
     87 Y     c       0.000090     -0.000047      0.000002      0.000000
     88 Y     c       0.000033      0.000015      0.000015      0.000000
--------------------------------------------------------------------------------
  Maximum abs         0.000963      0.000971      0.000971      0.000000
--------------------------------------------------------------------------------


  Time to end of optimisation =       0.5625 seconds


  Peak dynamic memory used =       2.17 MB 


  Timing analysis for GULP :

--------------------------------------------------------------------------------
  Task / Subroutine                                          Time (Seconds)
--------------------------------------------------------------------------------
  Calculation of reciprocal space energy and derivatives          0.0313
  Calculation of real space energy and derivatives                0.5156
  Calculation of matrix inversion                                 0.0156
--------------------------------------------------------------------------------
  Total CPU time                                                  0.5625
--------------------------------------------------------------------------------


  Dump file written as temp.res                                                


  Job Finished at 14:36.48 14th June       2021                               

