********************************************************************************
*                       GENERAL UTILITY LATTICE PROGRAM                        *
*                                 Julian Gale                                  *
*                      Nanochemistry Research Institute                        *
*                           Department of Chemistry                            *
*                    Curtin University, Western Australia                      *
********************************************************************************
* Version = 4.3.5 * Last modified = 16th December 2015                         *
********************************************************************************
*  optimise     - perform optimisation run                                     *
*  conp         - constant pressure calculation                                *
********************************************************************************
* ASE calculation                                                              *
********************************************************************************


  Job Started  at 14:36.54 14th June       2021                               

  Number of CPUs =     1


  Total number of configurations input =   1

********************************************************************************
*  Input for Configuration =   1                                               *
********************************************************************************

  Formula = O8Sr4Ti2                                                    

  Number of irreducible atoms/shells =      14


  Total number atoms/shells =      14

  Dimensionality = 3               :  Bulk   



  Cartesian lattice vectors (Angstroms) :

        3.931465    0.000000    0.000000
        0.000000    3.931465    0.000000
        0.000000    0.000000   12.913753

  Cell parameters (Angstroms/Degrees):

  a =       3.9315    alpha =  90.0000
  b =       3.9315    beta  =  90.0000
  c =      12.9138    gamma =  90.0000

  Initial cell volume =         199.600352 Angs**3

  Temperature of configuration =  0.000     K 

  Pressure of configuration =         0.000 GPa 

  Fractional coordinates of asymmetric unit :

--------------------------------------------------------------------------------
   No.  Atomic       x           y          z         Charge      Occupancy
        Label      (Frac)      (Frac)     (Frac)        (e)         (Frac)  
--------------------------------------------------------------------------------
      1 O     c    0.500000    0.000000    0.500000    -2.00000    1.000000    
      2 O     c    0.000000 *  0.500000 *  0.500000 *  -2.00000    1.000000    
      3 O     c    0.000000 *  0.500000 *  1.000000 *  -2.00000    1.000000    
      4 O     c    0.500000 *  0.000000 *  1.000000 *  -2.00000    1.000000    
      5 O     c    0.000000 *  0.000000 *  0.152150 *  -2.00000    1.000000    
      6 O     c    0.000000 *  0.000000 *  0.847849 *  -2.00000    1.000000    
      7 O     c    0.500000 *  0.500000 *  0.652151 *  -2.00000    1.000000    
      8 O     c    0.500000 *  0.500000 *  0.347850 *  -2.00000    1.000000    
      9 Sr    c    0.000000 *  0.000000 *  0.345770 *   2.00000    1.000000    
     10 Sr    c    0.000000 *  0.000000 *  0.654230 *   2.00000    1.000000    
     11 Sr    c    0.500000 *  0.500000 *  0.845770 *   2.00000    1.000000    
     12 Sr    c    0.500000 *  0.500000 *  0.154230 *   2.00000    1.000000    
     13 Ti    c    0.500000 *  0.500000 *  0.499999 *   4.00000    1.000000    
     14 Ti    c    0.000000 *  0.000000 *  0.000000 *   4.00000    1.000000    
--------------------------------------------------------------------------------



********************************************************************************
*  General input information                                                   *
********************************************************************************

  Species output for all configurations : 

--------------------------------------------------------------------------------
  Species    Type    Atomic    Atomic    Charge       Radii (Angs)     Library
                     Number     Mass       (e)     Cova   Ionic  VDW   Symbol
--------------------------------------------------------------------------------
    O        Core        8      16.00  -2.000000   0.730  0.000  1.360          
    Sr       Core       38      87.62   2.000000   1.120  0.000  1.670          
    Ti       Core       22      47.88   4.000000   1.470  0.000  2.190          
--------------------------------------------------------------------------------


  Lattice summation method               =    Ewald          (3-D)
                                         =    Parry          (2-D)
                                         =    Saunders et al (1-D)
  Accuracy factor for lattice sums       =   12.000


  Time limit =     300.00 seconds

  Maximum range for interatomic potentials =    100000.000000 Angstroms

  C6 terms to be calculated in real and reciprocal space 

  General interatomic potentials :

--------------------------------------------------------------------------------
Atom  Types   Potential         A         B         C         D     Cutoffs(Ang)
  1     2                                                            Min    Max 
--------------------------------------------------------------------------------
O    c Sr   c Buckingham    0.195E+04 0.337      19.2      0.00     1.200 12.000
O    c Ti   c Buckingham    0.459E+04 0.261      0.00      0.00     1.200 12.000
O    c O    c Buckingham    0.139E+04 0.363      175.      0.00     1.200 12.000
--------------------------------------------------------------------------------

********************************************************************************
*  Output for configuration   1                                                *
********************************************************************************


  Components of energy : 

--------------------------------------------------------------------------------
  Interatomic potentials     =          66.76073782 eV
  Monopole - monopole (real) =        -192.80022279 eV
  Monopole - monopole (recip)=        -245.45146079 eV
  Monopole - monopole (total)=        -438.25168358 eV
  Dispersion (real+recip)    =         -13.67592734 eV
--------------------------------------------------------------------------------
  Total lattice energy       =        -385.16687310 eV
--------------------------------------------------------------------------------
  Total lattice energy       =          -37162.7154 kJ/(mole unit cells)
--------------------------------------------------------------------------------


  Number of variables =       45

  Maximum number of calculations  =          1500
  Maximum Hessian update interval =            10
  Maximum step size               =   1.000000000
  Maximum parameter tolerance     =   0.000010000
  Maximum function  tolerance     =   0.000010000
  Maximum gradient  tolerance     =   0.001000000
  Maximum gradient  component     =   0.010000000

  Symmetry not applied to optimisation

  Cell parameters to be optimised using strains

  Newton-Raphson optimiser to be used

  BFGS hessian update to be used

  Start of bulk optimisation :

  Cycle:      0 Energy:      -385.166873  Gnorm:      0.000949  CPU:    0.016
  ** Hessian calculated **


  **** Optimisation achieved ****


  Final energy =    -385.16687556 eV
  Final Gnorm  =       0.00000109

  Components of energy : 

--------------------------------------------------------------------------------
  Interatomic potentials     =          66.76102020 eV
  Monopole - monopole (real) =        -192.79954730 eV
  Monopole - monopole (recip)=        -245.45200401 eV
  Monopole - monopole (total)=        -438.25155131 eV
  Dispersion (real+recip)    =         -13.67634445 eV
--------------------------------------------------------------------------------
  Total lattice energy       =        -385.16687556 eV
--------------------------------------------------------------------------------
  Total lattice energy       =          -37162.7157 kJ/(mole unit cells)
--------------------------------------------------------------------------------

  Final fractional coordinates of atoms :

--------------------------------------------------------------------------------
   No.  Atomic        x           y          z          Radius
        Label       (Frac)      (Frac)     (Frac)       (Angs) 
--------------------------------------------------------------------------------
     1  O     c     0.500000    0.000000    0.500000    0.000000
     2  O     c     1.000000    0.500000    0.500000    0.000000
     3  O     c     1.000000    0.500000    0.000000    0.000000
     4  O     c     0.500000    1.000000    0.000000    0.000000
     5  O     c     1.000000    1.000000    0.152148    0.000000
     6  O     c     1.000000    1.000000    0.847852    0.000000
     7  O     c     0.500000    0.500000    0.652148    0.000000
     8  O     c     0.500000    0.500000    0.347852    0.000000
     9  Sr    c     1.000000    1.000000    0.345767    0.000000
    10  Sr    c     1.000000    1.000000    0.654233    0.000000
    11  Sr    c     0.500000    0.500000    0.845767    0.000000
    12  Sr    c     0.500000    0.500000    0.154233    0.000000
    13  Ti    c     0.500000    0.500000    0.500000    0.000000
    14  Ti    c     1.000000    1.000000    0.000000    0.000000
--------------------------------------------------------------------------------

  Final Cartesian lattice vectors (Angstroms) :

        3.931217    0.000000    0.000000
        0.000000    3.931217    0.000000
        0.000000    0.000000   12.915284


  Final cell parameters and derivatives :

--------------------------------------------------------------------------------
       a            3.931217 Angstrom     dE/de1(xx)    -0.000011 eV/strain
       b            3.931217 Angstrom     dE/de2(yy)    -0.000011 eV/strain
       c           12.915284 Angstrom     dE/de3(zz)    -0.000020 eV/strain
       alpha       90.000000 Degrees      dE/de4(yz)     0.000000 eV/strain
       beta        90.000000 Degrees      dE/de5(xz)    -0.000000 eV/strain
       gamma       90.000000 Degrees      dE/de6(xy)    -0.000000 eV/strain
--------------------------------------------------------------------------------

  Primitive cell volume =           199.598877 Angs**3

  Density of cell =      4.777397 g/cm**3

  Non-primitive cell volume =           199.598877 Angs**3


  Final internal derivatives :

--------------------------------------------------------------------------------
   No.  Atomic          a             b             c           Radius
        Label          (eV)          (eV)          (eV)        (eV/Angs)
--------------------------------------------------------------------------------
      1 O     c       0.000000      0.000000      0.000000      0.000000
      2 O     c       0.000000      0.000000     -0.000003      0.000000
      3 O     c       0.000000      0.000000      0.000002      0.000000
      4 O     c      -0.000000      0.000000      0.000002      0.000000
      5 O     c       0.000000     -0.000000     -0.000018      0.000000
      6 O     c      -0.000000     -0.000000      0.000016      0.000000
      7 O     c      -0.000000     -0.000000     -0.000014      0.000000
      8 O     c      -0.000000     -0.000000      0.000020      0.000000
      9 Sr    c       0.000000      0.000000     -0.000012      0.000000
     10 Sr    c       0.000000      0.000000      0.000012      0.000000
     11 Sr    c       0.000000      0.000000     -0.000013      0.000000
     12 Sr    c       0.000000      0.000000      0.000011      0.000000
     13 Ti    c       0.000000     -0.000000     -0.000000      0.000000
     14 Ti    c      -0.000000     -0.000000     -0.000000      0.000000
--------------------------------------------------------------------------------
  Maximum abs         0.000000      0.000000      0.000020      0.000000
--------------------------------------------------------------------------------


  Time to end of optimisation =       0.0313 seconds


  Peak dynamic memory used =       0.54 MB 


  Timing analysis for GULP :

--------------------------------------------------------------------------------
  Task / Subroutine                                          Time (Seconds)
--------------------------------------------------------------------------------
  Calculation of real space energy and derivatives                0.0313
--------------------------------------------------------------------------------
  Total CPU time                                                  0.0313
--------------------------------------------------------------------------------


  Dump file written as temp.res                                                


  Job Finished at 14:36.54 14th June       2021                               

