********************************************************************************
*                       GENERAL UTILITY LATTICE PROGRAM                        *
*                                 Julian Gale                                  *
*                      Nanochemistry Research Institute                        *
*                           Department of Chemistry                            *
*                    Curtin University, Western Australia                      *
********************************************************************************
* Version = 4.3.5 * Last modified = 16th December 2015                         *
********************************************************************************
*  optimise     - perform optimisation run                                     *
*  conp         - constant pressure calculation                                *
********************************************************************************
* ASE calculation                                                              *
********************************************************************************


  Job Started  at 14:36.25 14th June       2021                               

  Number of CPUs =     1


  Total number of configurations input =   1

********************************************************************************
*  Input for Configuration =   1                                               *
********************************************************************************

  Formula = O8Ti4                                                       

  Number of irreducible atoms/shells =      12


  Total number atoms/shells =      12

  Dimensionality = 3               :  Bulk   



  Cartesian lattice vectors (Angstroms) :

        3.708961    0.000000    0.000000
        0.000000    3.708822    0.000000
        0.000000    0.000000   10.111715

  Cell parameters (Angstroms/Degrees):

  a =       3.7090    alpha =  90.0000
  b =       3.7088    beta  =  90.0000
  c =      10.1117    gamma =  90.0000

  Initial cell volume =         139.095499 Angs**3

  Temperature of configuration =  0.000     K 

  Pressure of configuration =         0.000 GPa 

  Fractional coordinates of asymmetric unit :

--------------------------------------------------------------------------------
   No.  Atomic       x           y          z         Charge      Occupancy
        Label      (Frac)      (Frac)     (Frac)        (e)         (Frac)  
--------------------------------------------------------------------------------
      1 O     c    0.000000    0.000000    0.208100    -2.00000    1.000000    
      2 O     c    0.500000 *  0.500000 *  0.708043 *  -2.00000    1.000000    
      3 O     c    0.000000 *  0.500000 *  0.458052 *  -2.00000    1.000000    
      4 O     c    0.500000 *  0.000000 *  0.958050 *  -2.00000    1.000000    
      5 O     c    0.500000 *  0.000000 *  0.555115 *  -2.00000    1.000000    
      6 O     c    0.000000 *  0.500000 *  0.055133 *  -2.00000    1.000000    
      7 O     c    0.500000 *  0.500000 *  0.305127 *  -2.00000    1.000000    
      8 O     c    0.000000 *  0.000000 *  0.805122 *  -2.00000    1.000000    
      9 Ti    c    0.000000 *  0.000000 *  0.006590 *   4.00000    1.000000    
     10 Ti    c    0.500000 *  0.500000 *  0.506574 *   4.00000    1.000000    
     11 Ti    c    0.000000 *  0.500000 *  0.256603 *   4.00000    1.000000    
     12 Ti    c    0.500000 *  0.000000 *  0.756577 *   4.00000    1.000000    
--------------------------------------------------------------------------------



********************************************************************************
*  General input information                                                   *
********************************************************************************

  Species output for all configurations : 

--------------------------------------------------------------------------------
  Species    Type    Atomic    Atomic    Charge       Radii (Angs)     Library
                     Number     Mass       (e)     Cova   Ionic  VDW   Symbol
--------------------------------------------------------------------------------
    O        Core        8      16.00  -2.000000   0.730  0.000  1.360          
    Ti       Core       22      47.88   4.000000   1.470  0.000  2.190          
--------------------------------------------------------------------------------


  Lattice summation method               =    Ewald          (3-D)
                                         =    Parry          (2-D)
                                         =    Saunders et al (1-D)
  Accuracy factor for lattice sums       =   12.000


  Time limit =     300.00 seconds

  Maximum range for interatomic potentials =    100000.000000 Angstroms

  C6 terms to be calculated in real/reciprocal space by one-centre decomposition

  General interatomic potentials :

--------------------------------------------------------------------------------
Atom  Types   Potential         A         B         C         D     Cutoffs(Ang)
  1     2                                                            Min    Max 
--------------------------------------------------------------------------------
O    c Ti   c Buckingham    0.459E+04 0.261      0.00      0.00     1.200 12.000
O    c O    c Buckingham    0.139E+04 0.363      175.      0.00     1.200 12.000
--------------------------------------------------------------------------------

********************************************************************************
*  Output for configuration   1                                                *
********************************************************************************


  Components of energy : 

--------------------------------------------------------------------------------
  Interatomic potentials     =          91.53082380 eV
  Monopole - monopole (real) =        -239.07903439 eV
  Monopole - monopole (recip)=        -327.10874804 eV
  Monopole - monopole (total)=        -566.18778243 eV
  Dispersion (real+recip)    =         -19.55333241 eV
--------------------------------------------------------------------------------
  Total lattice energy       =        -494.21029105 eV
--------------------------------------------------------------------------------
  Total lattice energy       =          -47683.7384 kJ/(mole unit cells)
--------------------------------------------------------------------------------


  Number of variables =       39

  Maximum number of calculations  =          1500
  Maximum Hessian update interval =            10
  Maximum step size               =   1.000000000
  Maximum parameter tolerance     =   0.000010000
  Maximum function  tolerance     =   0.000010000
  Maximum gradient  tolerance     =   0.001000000
  Maximum gradient  component     =   0.010000000

  Symmetry not applied to optimisation

  Cell parameters to be optimised using strains

  Newton-Raphson optimiser to be used

  BFGS hessian update to be used

  Start of bulk optimisation :

  Cycle:      0 Energy:      -494.210291  Gnorm:      0.001344  CPU:    0.000
  ** Hessian calculated **


  **** Optimisation achieved ****


  Final energy =    -494.21029493 eV
  Final Gnorm  =       0.00000207

  Components of energy : 

--------------------------------------------------------------------------------
  Interatomic potentials     =          91.53122857 eV
  Monopole - monopole (real) =        -239.08091358 eV
  Monopole - monopole (recip)=        -327.10696457 eV
  Monopole - monopole (total)=        -566.18787815 eV
  Dispersion (real+recip)    =         -19.55364535 eV
--------------------------------------------------------------------------------
  Total lattice energy       =        -494.21029493 eV
--------------------------------------------------------------------------------
  Total lattice energy       =          -47683.7388 kJ/(mole unit cells)
--------------------------------------------------------------------------------

  Final fractional coordinates of atoms :

--------------------------------------------------------------------------------
   No.  Atomic        x           y          z          Radius
        Label       (Frac)      (Frac)     (Frac)       (Angs) 
--------------------------------------------------------------------------------
     1  O     c     0.000000    0.000000    0.208100    0.000000
     2  O     c     0.500000    0.500000    0.708100    0.000000
     3  O     c     0.000000    0.500000    0.458100    0.000000
     4  O     c     0.500000    1.000000    0.958100    0.000000
     5  O     c     0.500000    0.000000    0.555180    0.000000
     6  O     c     0.000000    0.500000    0.055180    0.000000
     7  O     c     0.500000    0.500000    0.305180    0.000000
     8  O     c     0.000000    0.000000    0.805180    0.000000
     9  Ti    c     0.000000    1.000000    0.006640    0.000000
    10  Ti    c     0.500000    0.500000    0.506640    0.000000
    11  Ti    c     0.000000    0.500000    0.256640    0.000000
    12  Ti    c     0.500000    0.000000    0.756640    0.000000
--------------------------------------------------------------------------------

  Final Cartesian lattice vectors (Angstroms) :

        3.708796    0.000000   -0.000000
        0.000000    3.708796    0.000000
       -0.000000    0.000000   10.112436


  Final cell parameters and derivatives :

--------------------------------------------------------------------------------
       a            3.708796 Angstrom     dE/de1(xx)    -0.000003 eV/strain
       b            3.708796 Angstrom     dE/de2(yy)    -0.000004 eV/strain
       c           10.112436 Angstrom     dE/de3(zz)    -0.000017 eV/strain
       alpha       90.000000 Degrees      dE/de4(yz)     0.000000 eV/strain
       beta        90.000000 Degrees      dE/de5(xz)    -0.000000 eV/strain
       gamma       90.000000 Degrees      dE/de6(xy)     0.000000 eV/strain
--------------------------------------------------------------------------------

  Primitive cell volume =           139.098226 Angs**3

  Density of cell =      3.814455 g/cm**3

  Non-primitive cell volume =           139.098226 Angs**3


  Final internal derivatives :

--------------------------------------------------------------------------------
   No.  Atomic          a             b             c           Radius
        Label          (eV)          (eV)          (eV)        (eV/Angs)
--------------------------------------------------------------------------------
      1 O     c       0.000000      0.000000      0.000000      0.000000
      2 O     c      -0.000000     -0.000000     -0.000002      0.000000
      3 O     c       0.000000      0.000000     -0.000030      0.000000
      4 O     c      -0.000000      0.000000      0.000003      0.000000
      5 O     c      -0.000000     -0.000000      0.000002      0.000000
      6 O     c       0.000000     -0.000000     -0.000005      0.000000
      7 O     c      -0.000000      0.000000      0.000046      0.000000
      8 O     c       0.000000      0.000000     -0.000002      0.000000
      9 Ti    c       0.000000     -0.000000      0.000047      0.000000
     10 Ti    c       0.000000     -0.000000     -0.000023      0.000000
     11 Ti    c       0.000000     -0.000000      0.000019      0.000000
     12 Ti    c      -0.000000      0.000000     -0.000003      0.000000
--------------------------------------------------------------------------------
  Maximum abs         0.000000      0.000000      0.000047      0.000000
--------------------------------------------------------------------------------


  Time to end of optimisation =       0.0156 seconds


  Peak dynamic memory used =       0.53 MB 


  Timing analysis for GULP :

--------------------------------------------------------------------------------
  Task / Subroutine                                          Time (Seconds)
--------------------------------------------------------------------------------
  Calculation of real space energy and derivatives                0.0156
--------------------------------------------------------------------------------
  Total CPU time                                                  0.0156
--------------------------------------------------------------------------------


  Dump file written as temp.res                                                


  Job Finished at 14:36.25 14th June       2021                               

